V -t * -v 1.0a5 -a 0
A -t * -n 1 -p 0 -o 0x7fffffff -c 30 -a 1
A -t * -h 1 -m 1073741823 -s 0
c -t * -i 1 -n Red
c -t * -i 2 -n Blue
n -t * -a 4 -s 4 -S UP -v circle -c black -i black
n -t * -a 0 -s 0 -S UP -v circle -c black -i black
n -t * -a 5 -s 5 -S UP -v circle -c black -i black
n -t * -a 1 -s 1 -S UP -v circle -c black -i black
n -t * -a 2 -s 2 -S UP -v circle -c black -i black
n -t * -a 3 -s 3 -S UP -v circle -c black -i black
l -t * -s 0 -d 3 -S UP -r 1000000 -D 0.01 -c black
X -t * -n 6 -r 1Mb -D 10ms -o left
L -t * -s 6 -d 0 -o up
L -t * -s 6 -d 1 -o down
L -t * -s 6 -d 2 -o up
X -t * -n 7 -r 2Mb -D 10ms -o left
L -t * -s 7 -d 3 -o up
L -t * -s 7 -d 4 -o down
L -t * -s 7 -d 5 -o up
h -t 0 -s 4 -d 7 -p tcp -e 40 -c 1 -i 0 -a 1 -x {4.0 2.0 0 ------- null}
+ -t 0.01 -s 4 -d 7 -p tcp -e 40 -c 1 -i 0 -a 1 -x {4.0 2.0 0 ------- null}
- -t 0.01 -s 4 -d 7 -p tcp -e 40 -c 1 -i 0 -a 1 -x {4.0 2.0 0 ------- null}
h -t 0.01 -s 4 -d 7 -p tcp -e 40 -c 1 -i 0 -a 1 -x {4.0 2.0 -1 ------- null}
r -t 0.02026 -s 7 -d 3 -p tcp -e 40 -c 1 -i 0 -a 1 -x {4.0 2.0 0 ------- null}
+ -t 0.02026 -s 3 -d 0 -p tcp -e 40 -c 1 -i 0 -a 1 -x {4.0 2.0 0 ------- null}
- -t 0.02026 -s 3 -d 0 -p tcp -e 40 -c 1 -i 0 -a 1 -x {4.0 2.0 0 ------- null}
h -t 0.02026 -s 3 -d 0 -p tcp -e 40 -c 1 -i 0 -a 1 -x {4.0 2.0 -1 ------- null}
r -t 0.03058 -s 3 -d 0 -p tcp -e 40 -c 1 -i 0 -a 1 -x {4.0 2.0 0 ------- null}
h -t 0.03058 -s 0 -d 6 -p tcp -e 40 -c 1 -i 0 -a 1 -x {4.0 2.0 0 ------- null}
+ -t 0.04058 -s 0 -d 6 -p tcp -e 40 -c 1 -i 0 -a 1 -x {4.0 2.0 0 ------- null}
- -t 0.04058 -s 0 -d 6 -p tcp -e 40 -c 1 -i 0 -a 1 -x {4.0 2.0 0 ------- null}
h -t 0.04058 -s 0 -d 6 -p tcp -e 40 -c 1 -i 0 -a 1 -x {4.0 2.0 -1 ------- null}
r -t 0.051096 -s 6 -d 2 -p tcp -e 40 -c 1 -i 0 -a 1 -x {4.0 2.0 0 ------- null}
h -t 0.051096 -s 2 -d 6 -p ack -e 40 -c 1 -i 1 -a 1 -x {2.0 4.0 0 ------- null}
+ -t 0.061096 -s 2 -d 6 -p ack -e 40 -c 1 -i 1 -a 1 -x {2.0 4.0 0 ------- null}
- -t 0.061096 -s 2 -d 6 -p ack -e 40 -c 1 -i 1 -a 1 -x {2.0 4.0 0 ------- null}
h -t 0.061096 -s 2 -d 6 -p ack -e 40 -c 1 -i 1 -a 1 -x {2.0 4.0 -1 ------- null}
r -t 0.071612 -s 6 -d 0 -p ack -e 40 -c 1 -i 1 -a 1 -x {2.0 4.0 0 ------- null}
+ -t 0.071612 -s 0 -d 3 -p ack -e 40 -c 1 -i 1 -a 1 -x {2.0 4.0 0 ------- null}
- -t 0.071612 -s 0 -d 3 -p ack -e 40 -c 1 -i 1 -a 1 -x {2.0 4.0 0 ------- null}
h -t 0.071612 -s 0 -d 3 -p ack -e 40 -c 1 -i 1 -a 1 -x {2.0 4.0 -1 ------- null}
r -t 0.081932 -s 0 -d 3 -p ack -e 40 -c 1 -i 1 -a 1 -x {2.0 4.0 0 ------- null}
h -t 0.081932 -s 3 -d 7 -p ack -e 40 -c 1 -i 1 -a 1 -x {2.0 4.0 0 ------- null}
+ -t 0.091932 -s 3 -d 7 -p ack -e 40 -c 1 -i 1 -a 1 -x {2.0 4.0 0 ------- null}
- -t 0.091932 -s 3 -d 7 -p ack -e 40 -c 1 -i 1 -a 1 -x {2.0 4.0 0 ------- null}
h -t 0.091932 -s 3 -d 7 -p ack -e 40 -c 1 -i 1 -a 1 -x {2.0 4.0 -1 ------- null}
r -t 0.102192 -s 7 -d 4 -p ack -e 40 -c 1 -i 1 -a 1 -x {2.0 4.0 0 ------- null}
h -t 0.102192 -s 4 -d 7 -p tcp -e 1040 -c 1 -i 2 -a 1 -x {4.0 2.0 1 ------- null}
h -t 0.102192 -s 4 -d 7 -p tcp -e 1040 -c 1 -i 3 -a 1 -x {4.0 2.0 2 ------- null}
+ -t 0.112192 -s 4 -d 7 -p tcp -e 1040 -c 1 -i 2 -a 1 -x {4.0 2.0 1 ------- null}
- -t 0.112192 -s 4 -d 7 -p tcp -e 1040 -c 1 -i 2 -a 1 -x {4.0 2.0 1 ------- null}
h -t 0.112192 -s 4 -d 7 -p tcp -e 1040 -c 1 -i 2 -a 1 -x {4.0 2.0 -1 ------- null}
+ -t 0.112192 -s 4 -d 7 -p tcp -e 1040 -c 1 -i 3 -a 1 -x {4.0 2.0 2 ------- null}
- -t 0.116456 -s 4 -d 7 -p tcp -e 1040 -c 1 -i 3 -a 1 -x {4.0 2.0 2 ------- null}
h -t 0.116456 -s 4 -d 7 -p tcp -e 1040 -c 1 -i 3 -a 1 -x {4.0 2.0 -1 ------- null}
r -t 0.126412 -s 7 -d 3 -p tcp -e 1040 -c 1 -i 2 -a 1 -x {4.0 2.0 1 ------- null}
+ -t 0.126412 -s 3 -d 0 -p tcp -e 1040 -c 1 -i 2 -a 1 -x {4.0 2.0 1 ------- null}
- -t 0.126412 -s 3 -d 0 -p tcp -e 1040 -c 1 -i 2 -a 1 -x {4.0 2.0 1 ------- null}
h -t 0.126412 -s 3 -d 0 -p tcp -e 1040 -c 1 -i 2 -a 1 -x {4.0 2.0 -1 ------- null}
r -t 0.130676 -s 7 -d 3 -p tcp -e 1040 -c 1 -i 3 -a 1 -x {4.0 2.0 2 ------- null}
+ -t 0.130676 -s 3 -d 0 -p tcp -e 1040 -c 1 -i 3 -a 1 -x {4.0 2.0 2 ------- null}
- -t 0.134732 -s 3 -d 0 -p tcp -e 1040 -c 1 -i 3 -a 1 -x {4.0 2.0 2 ------- null}
h -t 0.134732 -s 3 -d 0 -p tcp -e 1040 -c 1 -i 3 -a 1 -x {4.0 2.0 -1 ------- null}
r -t 0.144732 -s 3 -d 0 -p tcp -e 1040 -c 1 -i 2 -a 1 -x {4.0 2.0 1 ------- null}
h -t 0.144732 -s 0 -d 6 -p tcp -e 1040 -c 1 -i 2 -a 1 -x {4.0 2.0 1 ------- null}
r -t 0.153052 -s 3 -d 0 -p tcp -e 1040 -c 1 -i 3 -a 1 -x {4.0 2.0 2 ------- null}
h -t 0.153052 -s 0 -d 6 -p tcp -e 1040 -c 1 -i 3 -a 1 -x {4.0 2.0 2 ------- null}
+ -t 0.154732 -s 0 -d 6 -p tcp -e 1040 -c 1 -i 2 -a 1 -x {4.0 2.0 1 ------- null}
- -t 0.154732 -s 0 -d 6 -p tcp -e 1040 -c 1 -i 2 -a 1 -x {4.0 2.0 1 ------- null}
h -t 0.154732 -s 0 -d 6 -p tcp -e 1040 -c 1 -i 2 -a 1 -x {4.0 2.0 -1 ------- null}
+ -t 0.163052 -s 0 -d 6 -p tcp -e 1040 -c 1 -i 3 -a 1 -x {4.0 2.0 2 ------- null}
- -t 0.16326 -s 0 -d 6 -p tcp -e 1040 -c 1 -i 3 -a 1 -x {4.0 2.0 2 ------- null}
h -t 0.16326 -s 0 -d 6 -p tcp -e 1040 -c 1 -i 3 -a 1 -x {4.0 2.0 -1 ------- null}
r -t 0.173168 -s 6 -d 2 -p tcp -e 1040 -c 1 -i 2 -a 1 -x {4.0 2.0 1 ------- null}
h -t 0.173168 -s 2 -d 6 -p ack -e 40 -c 1 -i 4 -a 1 -x {2.0 4.0 1 ------- null}
r -t 0.181696 -s 6 -d 2 -p tcp -e 1040 -c 1 -i 3 -a 1 -x {4.0 2.0 2 ------- null}
h -t 0.181696 -s 2 -d 6 -p ack -e 40 -c 1 -i 5 -a 1 -x {2.0 4.0 2 ------- null}
+ -t 0.183168 -s 2 -d 6 -p ack -e 40 -c 1 -i 4 -a 1 -x {2.0 4.0 1 ------- null}
- -t 0.183168 -s 2 -d 6 -p ack -e 40 -c 1 -i 4 -a 1 -x {2.0 4.0 1 ------- null}
h -t 0.183168 -s 2 -d 6 -p ack -e 40 -c 1 -i 4 -a 1 -x {2.0 4.0 -1 ------- null}
+ -t 0.191696 -s 2 -d 6 -p ack -e 40 -c 1 -i 5 -a 1 -x {2.0 4.0 2 ------- null}
- -t 0.191696 -s 2 -d 6 -p ack -e 40 -c 1 -i 5 -a 1 -x {2.0 4.0 2 ------- null}
h -t 0.191696 -s 2 -d 6 -p ack -e 40 -c 1 -i 5 -a 1 -x {2.0 4.0 -1 ------- null}
r -t 0.193684 -s 6 -d 0 -p ack -e 40 -c 1 -i 4 -a 1 -x {2.0 4.0 1 ------- null}
+ -t 0.193684 -s 0 -d 3 -p ack -e 40 -c 1 -i 4 -a 1 -x {2.0 4.0 1 ------- null}
- -t 0.193684 -s 0 -d 3 -p ack -e 40 -c 1 -i 4 -a 1 -x {2.0 4.0 1 ------- null}
h -t 0.193684 -s 0 -d 3 -p ack -e 40 -c 1 -i 4 -a 1 -x {2.0 4.0 -1 ------- null}
r -t 0.202212 -s 6 -d 0 -p ack -e 40 -c 1 -i 5 -a 1 -x {2.0 4.0 2 ------- null}
+ -t 0.202212 -s 0 -d 3 -p ack -e 40 -c 1 -i 5 -a 1 -x {2.0 4.0 2 ------- null}
- -t 0.202212 -s 0 -d 3 -p ack -e 40 -c 1 -i 5 -a 1 -x {2.0 4.0 2 ------- null}
h -t 0.202212 -s 0 -d 3 -p ack -e 40 -c 1 -i 5 -a 1 -x {2.0 4.0 -1 ------- null}
r -t 0.204004 -s 0 -d 3 -p ack -e 40 -c 1 -i 4 -a 1 -x {2.0 4.0 1 ------- null}
h -t 0.204004 -s 3 -d 7 -p ack -e 40 -c 1 -i 4 -a 1 -x {2.0 4.0 1 ------- null}
r -t 0.212532 -s 0 -d 3 -p ack -e 40 -c 1 -i 5 -a 1 -x {2.0 4.0 2 ------- null}
h -t 0.212532 -s 3 -d 7 -p ack -e 40 -c 1 -i 5 -a 1 -x {2.0 4.0 2 ------- null}
+ -t 0.214004 -s 3 -d 7 -p ack -e 40 -c 1 -i 4 -a 1 -x {2.0 4.0 1 ------- null}
- -t 0.214004 -s 3 -d 7 -p ack -e 40 -c 1 -i 4 -a 1 -x {2.0 4.0 1 ------- null}
h -t 0.214004 -s 3 -d 7 -p ack -e 40 -c 1 -i 4 -a 1 -x {2.0 4.0 -1 ------- null}
+ -t 0.222532 -s 3 -d 7 -p ack -e 40 -c 1 -i 5 -a 1 -x {2.0 4.0 2 ------- null}
- -t 0.222532 -s 3 -d 7 -p ack -e 40 -c 1 -i 5 -a 1 -x {2.0 4.0 2 ------- null}
h -t 0.222532 -s 3 -d 7 -p ack -e 40 -c 1 -i 5 -a 1 -x {2.0 4.0 -1 ------- null}
r -t 0.224264 -s 7 -d 4 -p ack -e 40 -c 1 -i 4 -a 1 -x {2.0 4.0 1 ------- null}
h -t 0.224264 -s 4 -d 7 -p tcp -e 1040 -c 1 -i 6 -a 1 -x {4.0 2.0 3 ------- null}
h -t 0.224264 -s 4 -d 7 -p tcp -e 1040 -c 1 -i 7 -a 1 -x {4.0 2.0 4 ------- null}
r -t 0.232792 -s 7 -d 4 -p ack -e 40 -c 1 -i 5 -a 1 -x {2.0 4.0 2 ------- null}
h -t 0.232792 -s 4 -d 7 -p tcp -e 1040 -c 1 -i 8 -a 1 -x {4.0 2.0 5 ------- null}
h -t 0.232792 -s 4 -d 7 -p tcp -e 1040 -c 1 -i 9 -a 1 -x {4.0 2.0 6 ------- null}
+ -t 0.234264 -s 4 -d 7 -p tcp -e 1040 -c 1 -i 6 -a 1 -x {4.0 2.0 3 ------- null}
- -t 0.234264 -s 4 -d 7 -p tcp -e 1040 -c 1 -i 6 -a 1 -x {4.0 2.0 3 ------- null}
h -t 0.234264 -s 4 -d 7 -p tcp -e 1040 -c 1 -i 6 -a 1 -x {4.0 2.0 -1 ------- null}
+ -t 0.234264 -s 4 -d 7 -p tcp -e 1040 -c 1 -i 7 -a 1 -x {4.0 2.0 4 ------- null}
- -t 0.238528 -s 4 -d 7 -p tcp -e 1040 -c 1 -i 7 -a 1 -x {4.0 2.0 4 ------- null}
h -t 0.238528 -s 4 -d 7 -p tcp -e 1040 -c 1 -i 7 -a 1 -x {4.0 2.0 -1 ------- null}
+ -t 0.242792 -s 4 -d 7 -p tcp -e 1040 -c 1 -i 8 -a 1 -x {4.0 2.0 5 ------- null}
- -t 0.242792 -s 4 -d 7 -p tcp -e 1040 -c 1 -i 8 -a 1 -x {4.0 2.0 5 ------- null}
h -t 0.242792 -s 4 -d 7 -p tcp -e 1040 -c 1 -i 8 -a 1 -x {4.0 2.0 -1 ------- null}
+ -t 0.242792 -s 4 -d 7 -p tcp -e 1040 -c 1 -i 9 -a 1 -x {4.0 2.0 6 ------- null}
- -t 0.247056 -s 4 -d 7 -p tcp -e 1040 -c 1 -i 9 -a 1 -x {4.0 2.0 6 ------- null}
h -t 0.247056 -s 4 -d 7 -p tcp -e 1040 -c 1 -i 9 -a 1 -x {4.0 2.0 -1 ------- null}
r -t 0.248484 -s 7 -d 3 -p tcp -e 1040 -c 1 -i 6 -a 1 -x {4.0 2.0 3 ------- null}
+ -t 0.248484 -s 3 -d 0 -p tcp -e 1040 -c 1 -i 6 -a 1 -x {4.0 2.0 3 ------- null}
- -t 0.248484 -s 3 -d 0 -p tcp -e 1040 -c 1 -i 6 -a 1 -x {4.0 2.0 3 ------- null}
h -t 0.248484 -s 3 -d 0 -p tcp -e 1040 -c 1 -i 6 -a 1 -x {4.0 2.0 -1 ------- null}
r -t 0.252748 -s 7 -d 3 -p tcp -e 1040 -c 1 -i 7 -a 1 -x {4.0 2.0 4 ------- null}
+ -t 0.252748 -s 3 -d 0 -p tcp -e 1040 -c 1 -i 7 -a 1 -x {4.0 2.0 4 ------- null}
- -t 0.256804 -s 3 -d 0 -p tcp -e 1040 -c 1 -i 7 -a 1 -x {4.0 2.0 4 ------- null}
h -t 0.256804 -s 3 -d 0 -p tcp -e 1040 -c 1 -i 7 -a 1 -x {4.0 2.0 -1 ------- null}
r -t 0.257012 -s 7 -d 3 -p tcp -e 1040 -c 1 -i 8 -a 1 -x {4.0 2.0 5 ------- null}
+ -t 0.257012 -s 3 -d 0 -p tcp -e 1040 -c 1 -i 8 -a 1 -x {4.0 2.0 5 ------- null}
r -t 0.261276 -s 7 -d 3 -p tcp -e 1040 -c 1 -i 9 -a 1 -x {4.0 2.0 6 ------- null}
+ -t 0.261276 -s 3 -d 0 -p tcp -e 1040 -c 1 -i 9 -a 1 -x {4.0 2.0 6 ------- null}
- -t 0.265124 -s 3 -d 0 -p tcp -e 1040 -c 1 -i 8 -a 1 -x {4.0 2.0 5 ------- null}
h -t 0.265124 -s 3 -d 0 -p tcp -e 1040 -c 1 -i 8 -a 1 -x {4.0 2.0 -1 ------- null}
r -t 0.266804 -s 3 -d 0 -p tcp -e 1040 -c 1 -i 6 -a 1 -x {4.0 2.0 3 ------- null}
h -t 0.266804 -s 0 -d 6 -p tcp -e 1040 -c 1 -i 6 -a 1 -x {4.0 2.0 3 ------- null}
- -t 0.273444 -s 3 -d 0 -p tcp -e 1040 -c 1 -i 9 -a 1 -x {4.0 2.0 6 ------- null}
h -t 0.273444 -s 3 -d 0 -p tcp -e 1040 -c 1 -i 9 -a 1 -x {4.0 2.0 -1 ------- null}
r -t 0.275124 -s 3 -d 0 -p tcp -e 1040 -c 1 -i 7 -a 1 -x {4.0 2.0 4 ------- null}
h -t 0.275124 -s 0 -d 6 -p tcp -e 1040 -c 1 -i 7 -a 1 -x {4.0 2.0 4 ------- null}
+ -t 0.276804 -s 0 -d 6 -p tcp -e 1040 -c 1 -i 6 -a 1 -x {4.0 2.0 3 ------- null}
- -t 0.276804 -s 0 -d 6 -p tcp -e 1040 -c 1 -i 6 -a 1 -x {4.0 2.0 3 ------- null}
h -t 0.276804 -s 0 -d 6 -p tcp -e 1040 -c 1 -i 6 -a 1 -x {4.0 2.0 -1 ------- null}
r -t 0.283444 -s 3 -d 0 -p tcp -e 1040 -c 1 -i 8 -a 1 -x {4.0 2.0 5 ------- null}
h -t 0.283444 -s 0 -d 6 -p tcp -e 1040 -c 1 -i 8 -a 1 -x {4.0 2.0 5 ------- null}
+ -t 0.285124 -s 0 -d 6 -p tcp -e 1040 -c 1 -i 7 -a 1 -x {4.0 2.0 4 ------- null}
- -t 0.285332 -s 0 -d 6 -p tcp -e 1040 -c 1 -i 7 -a 1 -x {4.0 2.0 4 ------- null}
h -t 0.285332 -s 0 -d 6 -p tcp -e 1040 -c 1 -i 7 -a 1 -x {4.0 2.0 -1 ------- null}
r -t 0.291764 -s 3 -d 0 -p tcp -e 1040 -c 1 -i 9 -a 1 -x {4.0 2.0 6 ------- null}
h -t 0.291764 -s 0 -d 6 -p tcp -e 1040 -c 1 -i 9 -a 1 -x {4.0 2.0 6 ------- null}
+ -t 0.293444 -s 0 -d 6 -p tcp -e 1040 -c 1 -i 8 -a 1 -x {4.0 2.0 5 ------- null}
- -t 0.29386 -s 0 -d 6 -p tcp -e 1040 -c 1 -i 8 -a 1 -x {4.0 2.0 5 ------- null}
h -t 0.29386 -s 0 -d 6 -p tcp -e 1040 -c 1 -i 8 -a 1 -x {4.0 2.0 -1 ------- null}
r -t 0.29524 -s 6 -d 2 -p tcp -e 1040 -c 1 -i 6 -a 1 -x {4.0 2.0 3 ------- null}
h -t 0.29524 -s 2 -d 6 -p ack -e 40 -c 1 -i 10 -a 1 -x {2.0 4.0 3 ------- null}
+ -t 0.301764 -s 0 -d 6 -p tcp -e 1040 -c 1 -i 9 -a 1 -x {4.0 2.0 6 ------- null}
- -t 0.302388 -s 0 -d 6 -p tcp -e 1040 -c 1 -i 9 -a 1 -x {4.0 2.0 6 ------- null}
h -t 0.302388 -s 0 -d 6 -p tcp -e 1040 -c 1 -i 9 -a 1 -x {4.0 2.0 -1 ------- null}
r -t 0.303768 -s 6 -d 2 -p tcp -e 1040 -c 1 -i 7 -a 1 -x {4.0 2.0 4 ------- null}
h -t 0.303768 -s 2 -d 6 -p ack -e 40 -c 1 -i 11 -a 1 -x {2.0 4.0 4 ------- null}
+ -t 0.30524 -s 2 -d 6 -p ack -e 40 -c 1 -i 10 -a 1 -x {2.0 4.0 3 ------- null}
- -t 0.30524 -s 2 -d 6 -p ack -e 40 -c 1 -i 10 -a 1 -x {2.0 4.0 3 ------- null}
h -t 0.30524 -s 2 -d 6 -p ack -e 40 -c 1 -i 10 -a 1 -x {2.0 4.0 -1 ------- null}
r -t 0.312296 -s 6 -d 2 -p tcp -e 1040 -c 1 -i 8 -a 1 -x {4.0 2.0 5 ------- null}
h -t 0.312296 -s 2 -d 6 -p ack -e 40 -c 1 -i 12 -a 1 -x {2.0 4.0 5 ------- null}
+ -t 0.313768 -s 2 -d 6 -p ack -e 40 -c 1 -i 11 -a 1 -x {2.0 4.0 4 ------- null}
- -t 0.313768 -s 2 -d 6 -p ack -e 40 -c 1 -i 11 -a 1 -x {2.0 4.0 4 ------- null}
h -t 0.313768 -s 2 -d 6 -p ack -e 40 -c 1 -i 11 -a 1 -x {2.0 4.0 -1 ------- null}
r -t 0.320824 -s 6 -d 2 -p tcp -e 1040 -c 1 -i 9 -a 1 -x {4.0 2.0 6 ------- null}
h -t 0.320824 -s 2 -d 6 -p ack -e 40 -c 1 -i 13 -a 1 -x {2.0 4.0 6 ------- null}
r -t 0.321436 -s 6 -d 0 -p ack -e 40 -c 1 -i 10 -a 1 -x {2.0 4.0 3 ------- null}
+ -t 0.321436 -s 0 -d 3 -p ack -e 40 -c 1 -i 10 -a 1 -x {2.0 4.0 3 ------- null}
- -t 0.321436 -s 0 -d 3 -p ack -e 40 -c 1 -i 10 -a 1 -x {2.0 4.0 3 ------- null}
h -t 0.321436 -s 0 -d 3 -p ack -e 40 -c 1 -i 10 -a 1 -x {2.0 4.0 -1 ------- null}
+ -t 0.322296 -s 2 -d 6 -p ack -e 40 -c 1 -i 12 -a 1 -x {2.0 4.0 5 ------- null}
- -t 0.322296 -s 2 -d 6 -p ack -e 40 -c 1 -i 12 -a 1 -x {2.0 4.0 5 ------- null}
h -t 0.322296 -s 2 -d 6 -p ack -e 40 -c 1 -i 12 -a 1 -x {2.0 4.0 -1 ------- null}
r -t 0.324284 -s 6 -d 0 -p ack -e 40 -c 1 -i 11 -a 1 -x {2.0 4.0 4 ------- null}
+ -t 0.324284 -s 0 -d 3 -p ack -e 40 -c 1 -i 11 -a 1 -x {2.0 4.0 4 ------- null}
- -t 0.324284 -s 0 -d 3 -p ack -e 40 -c 1 -i 11 -a 1 -x {2.0 4.0 4 ------- null}
h -t 0.324284 -s 0 -d 3 -p ack -e 40 -c 1 -i 11 -a 1 -x {2.0 4.0 -1 ------- null}
+ -t 0.330824 -s 2 -d 6 -p ack -e 40 -c 1 -i 13 -a 1 -x {2.0 4.0 6 ------- null}
- -t 0.330824 -s 2 -d 6 -p ack -e 40 -c 1 -i 13 -a 1 -x {2.0 4.0 6 ------- null}
h -t 0.330824 -s 2 -d 6 -p ack -e 40 -c 1 -i 13 -a 1 -x {2.0 4.0 -1 ------- null}
r -t 0.331756 -s 0 -d 3 -p ack -e 40 -c 1 -i 10 -a 1 -x {2.0 4.0 3 ------- null}
h -t 0.331756 -s 3 -d 7 -p ack -e 40 -c 1 -i 10 -a 1 -x {2.0 4.0 3 ------- null}
r -t 0.332812 -s 6 -d 0 -p ack -e 40 -c 1 -i 12 -a 1 -x {2.0 4.0 5 ------- null}
+ -t 0.332812 -s 0 -d 3 -p ack -e 40 -c 1 -i 12 -a 1 -x {2.0 4.0 5 ------- null}
- -t 0.332812 -s 0 -d 3 -p ack -e 40 -c 1 -i 12 -a 1 -x {2.0 4.0 5 ------- null}
h -t 0.332812 -s 0 -d 3 -p ack -e 40 -c 1 -i 12 -a 1 -x {2.0 4.0 -1 ------- null}
r -t 0.334604 -s 0 -d 3 -p ack -e 40 -c 1 -i 11 -a 1 -x {2.0 4.0 4 ------- null}
h -t 0.334604 -s 3 -d 7 -p ack -e 40 -c 1 -i 11 -a 1 -x {2.0 4.0 4 ------- null}
r -t 0.34134 -s 6 -d 0 -p ack -e 40 -c 1 -i 13 -a 1 -x {2.0 4.0 6 ------- null}
+ -t 0.34134 -s 0 -d 3 -p ack -e 40 -c 1 -i 13 -a 1 -x {2.0 4.0 6 ------- null}
- -t 0.34134 -s 0 -d 3 -p ack -e 40 -c 1 -i 13 -a 1 -x {2.0 4.0 6 ------- null}
h -t 0.34134 -s 0 -d 3 -p ack -e 40 -c 1 -i 13 -a 1 -x {2.0 4.0 -1 ------- null}
+ -t 0.341756 -s 3 -d 7 -p ack -e 40 -c 1 -i 10 -a 1 -x {2.0 4.0 3 ------- null}
- -t 0.341756 -s 3 -d 7 -p ack -e 40 -c 1 -i 10 -a 1 -x {2.0 4.0 3 ------- null}
h -t 0.341756 -s 3 -d 7 -p ack -e 40 -c 1 -i 10 -a 1 -x {2.0 4.0 -1 ------- null}
r -t 0.343132 -s 0 -d 3 -p ack -e 40 -c 1 -i 12 -a 1 -x {2.0 4.0 5 ------- null}
h -t 0.343132 -s 3 -d 7 -p ack -e 40 -c 1 -i 12 -a 1 -x {2.0 4.0 5 ------- null}
+ -t 0.344604 -s 3 -d 7 -p ack -e 40 -c 1 -i 11 -a 1 -x {2.0 4.0 4 ------- null}
- -t 0.344604 -s 3 -d 7 -p ack -e 40 -c 1 -i 11 -a 1 -x {2.0 4.0 4 ------- null}
h -t 0.344604 -s 3 -d 7 -p ack -e 40 -c 1 -i 11 -a 1 -x {2.0 4.0 -1 ------- null}
r -t 0.35166 -s 0 -d 3 -p ack -e 40 -c 1 -i 13 -a 1 -x {2.0 4.0 6 ------- null}
h -t 0.35166 -s 3 -d 7 -p ack -e 40 -c 1 -i 13 -a 1 -x {2.0 4.0 6 ------- null}
r -t 0.352016 -s 7 -d 4 -p ack -e 40 -c 1 -i 10 -a 1 -x {2.0 4.0 3 ------- null}
h -t 0.352016 -s 4 -d 7 -p tcp -e 1040 -c 1 -i 14 -a 1 -x {4.0 2.0 7 ------- null}
h -t 0.352016 -s 4 -d 7 -p tcp -e 1040 -c 1 -i 15 -a 1 -x {4.0 2.0 8 ------- null}
+ -t 0.353132 -s 3 -d 7 -p ack -e 40 -c 1 -i 12 -a 1 -x {2.0 4.0 5 ------- null}
- -t 0.353132 -s 3 -d 7 -p ack -e 40 -c 1 -i 12 -a 1 -x {2.0 4.0 5 ------- null}
h -t 0.353132 -s 3 -d 7 -p ack -e 40 -c 1 -i 12 -a 1 -x {2.0 4.0 -1 ------- null}
r -t 0.354864 -s 7 -d 4 -p ack -e 40 -c 1 -i 11 -a 1 -x {2.0 4.0 4 ------- null}
h -t 0.354864 -s 4 -d 7 -p tcp -e 1040 -c 1 -i 16 -a 1 -x {4.0 2.0 9 ------- null}
h -t 0.354864 -s 4 -d 7 -p tcp -e 1040 -c 1 -i 17 -a 1 -x {4.0 2.0 10 ------- null}
+ -t 0.36166 -s 3 -d 7 -p ack -e 40 -c 1 -i 13 -a 1 -x {2.0 4.0 6 ------- null}
- -t 0.36166 -s 3 -d 7 -p ack -e 40 -c 1 -i 13 -a 1 -x {2.0 4.0 6 ------- null}
h -t 0.36166 -s 3 -d 7 -p ack -e 40 -c 1 -i 13 -a 1 -x {2.0 4.0 -1 ------- null}
+ -t 0.362016 -s 4 -d 7 -p tcp -e 1040 -c 1 -i 14 -a 1 -x {4.0 2.0 7 ------- null}
- -t 0.362016 -s 4 -d 7 -p tcp -e 1040 -c 1 -i 14 -a 1 -x {4.0 2.0 7 ------- null}
h -t 0.362016 -s 4 -d 7 -p tcp -e 1040 -c 1 -i 14 -a 1 -x {4.0 2.0 -1 ------- null}
+ -t 0.362016 -s 4 -d 7 -p tcp -e 1040 -c 1 -i 15 -a 1 -x {4.0 2.0 8 ------- null}
r -t 0.363392 -s 7 -d 4 -p ack -e 40 -c 1 -i 12 -a 1 -x {2.0 4.0 5 ------- null}
h -t 0.363392 -s 4 -d 7 -p tcp -e 1040 -c 1 -i 18 -a 1 -x {4.0 2.0 11 ------- null}
h -t 0.363392 -s 4 -d 7 -p tcp -e 1040 -c 1 -i 19 -a 1 -x {4.0 2.0 12 ------- null}
+ -t 0.364864 -s 4 -d 7 -p tcp -e 1040 -c 1 -i 16 -a 1 -x {4.0 2.0 9 ------- null}
+ -t 0.364864 -s 4 -d 7 -p tcp -e 1040 -c 1 -i 17 -a 1 -x {4.0 2.0 10 ------- null}
- -t 0.36628 -s 4 -d 7 -p tcp -e 1040 -c 1 -i 15 -a 1 -x {4.0 2.0 8 ------- null}
h -t 0.36628 -s 4 -d 7 -p tcp -e 1040 -c 1 -i 15 -a 1 -x {4.0 2.0 -1 ------- null}
- -t 0.370544 -s 4 -d 7 -p tcp -e 1040 -c 1 -i 16 -a 1 -x {4.0 2.0 9 ------- null}
h -t 0.370544 -s 4 -d 7 -p tcp -e 1040 -c 1 -i 16 -a 1 -x {4.0 2.0 -1 ------- null}
r -t 0.37192 -s 7 -d 4 -p ack -e 40 -c 1 -i 13 -a 1 -x {2.0 4.0 6 ------- null}
h -t 0.37192 -s 4 -d 7 -p tcp -e 1040 -c 1 -i 20 -a 1 -x {4.0 2.0 13 ------- null}
h -t 0.37192 -s 4 -d 7 -p tcp -e 1040 -c 1 -i 21 -a 1 -x {4.0 2.0 14 ------- null}
+ -t 0.373392 -s 4 -d 7 -p tcp -e 1040 -c 1 -i 18 -a 1 -x {4.0 2.0 11 ------- null}
+ -t 0.373392 -s 4 -d 7 -p tcp -e 1040 -c 1 -i 19 -a 1 -x {4.0 2.0 12 ------- null}
- -t 0.374808 -s 4 -d 7 -p tcp -e 1040 -c 1 -i 17 -a 1 -x {4.0 2.0 10 ------- null}
h -t 0.374808 -s 4 -d 7 -p tcp -e 1040 -c 1 -i 17 -a 1 -x {4.0 2.0 -1 ------- null}
r -t 0.376236 -s 7 -d 3 -p tcp -e 1040 -c 1 -i 14 -a 1 -x {4.0 2.0 7 ------- null}
+ -t 0.376236 -s 3 -d 0 -p tcp -e 1040 -c 1 -i 14 -a 1 -x {4.0 2.0 7 ------- null}
- -t 0.376236 -s 3 -d 0 -p tcp -e 1040 -c 1 -i 14 -a 1 -x {4.0 2.0 7 ------- null}
h -t 0.376236 -s 3 -d 0 -p tcp -e 1040 -c 1 -i 14 -a 1 -x {4.0 2.0 -1 ------- null}
- -t 0.379072 -s 4 -d 7 -p tcp -e 1040 -c 1 -i 18 -a 1 -x {4.0 2.0 11 ------- null}
h -t 0.379072 -s 4 -d 7 -p tcp -e 1040 -c 1 -i 18 -a 1 -x {4.0 2.0 -1 ------- null}
r -t 0.3805 -s 7 -d 3 -p tcp -e 1040 -c 1 -i 15 -a 1 -x {4.0 2.0 8 ------- null}
+ -t 0.3805 -s 3 -d 0 -p tcp -e 1040 -c 1 -i 15 -a 1 -x {4.0 2.0 8 ------- null}
+ -t 0.38192 -s 4 -d 7 -p tcp -e 1040 -c 1 -i 20 -a 1 -x {4.0 2.0 13 ------- null}
+ -t 0.38192 -s 4 -d 7 -p tcp -e 1040 -c 1 -i 21 -a 1 -x {4.0 2.0 14 ------- null}
- -t 0.383336 -s 4 -d 7 -p tcp -e 1040 -c 1 -i 19 -a 1 -x {4.0 2.0 12 ------- null}
h -t 0.383336 -s 4 -d 7 -p tcp -e 1040 -c 1 -i 19 -a 1 -x {4.0 2.0 -1 ------- null}
- -t 0.384556 -s 3 -d 0 -p tcp -e 1040 -c 1 -i 15 -a 1 -x {4.0 2.0 8 ------- null}
h -t 0.384556 -s 3 -d 0 -p tcp -e 1040 -c 1 -i 15 -a 1 -x {4.0 2.0 -1 ------- null}
r -t 0.384764 -s 7 -d 3 -p tcp -e 1040 -c 1 -i 16 -a 1 -x {4.0 2.0 9 ------- null}
+ -t 0.384764 -s 3 -d 0 -p tcp -e 1040 -c 1 -i 16 -a 1 -x {4.0 2.0 9 ------- null}
- -t 0.3876 -s 4 -d 7 -p tcp -e 1040 -c 1 -i 20 -a 1 -x {4.0 2.0 13 ------- null}
h -t 0.3876 -s 4 -d 7 -p tcp -e 1040 -c 1 -i 20 -a 1 -x {4.0 2.0 -1 ------- null}
r -t 0.389028 -s 7 -d 3 -p tcp -e 1040 -c 1 -i 17 -a 1 -x {4.0 2.0 10 ------- null}
+ -t 0.389028 -s 3 -d 0 -p tcp -e 1040 -c 1 -i 17 -a 1 -x {4.0 2.0 10 ------- null}
- -t 0.391864 -s 4 -d 7 -p tcp -e 1040 -c 1 -i 21 -a 1 -x {4.0 2.0 14 ------- null}
h -t 0.391864 -s 4 -d 7 -p tcp -e 1040 -c 1 -i 21 -a 1 -x {4.0 2.0 -1 ------- null}
- -t 0.392876 -s 3 -d 0 -p tcp -e 1040 -c 1 -i 16 -a 1 -x {4.0 2.0 9 ------- null}
h -t 0.392876 -s 3 -d 0 -p tcp -e 1040 -c 1 -i 16 -a 1 -x {4.0 2.0 -1 ------- null}
r -t 0.393292 -s 7 -d 3 -p tcp -e 1040 -c 1 -i 18 -a 1 -x {4.0 2.0 11 ------- null}
+ -t 0.393292 -s 3 -d 0 -p tcp -e 1040 -c 1 -i 18 -a 1 -x {4.0 2.0 11 ------- null}
r -t 0.394556 -s 3 -d 0 -p tcp -e 1040 -c 1 -i 14 -a 1 -x {4.0 2.0 7 ------- null}
h -t 0.394556 -s 0 -d 6 -p tcp -e 1040 -c 1 -i 14 -a 1 -x {4.0 2.0 7 ------- null}
r -t 0.397556 -s 7 -d 3 -p tcp -e 1040 -c 1 -i 19 -a 1 -x {4.0 2.0 12 ------- null}
+ -t 0.397556 -s 3 -d 0 -p tcp -e 1040 -c 1 -i 19 -a 1 -x {4.0 2.0 12 ------- null}
- -t 0.401196 -s 3 -d 0 -p tcp -e 1040 -c 1 -i 17 -a 1 -x {4.0 2.0 10 ------- null}
h -t 0.401196 -s 3 -d 0 -p tcp -e 1040 -c 1 -i 17 -a 1 -x {4.0 2.0 -1 ------- null}
r -t 0.40182 -s 7 -d 3 -p tcp -e 1040 -c 1 -i 20 -a 1 -x {4.0 2.0 13 ------- null}
+ -t 0.40182 -s 3 -d 0 -p tcp -e 1040 -c 1 -i 20 -a 1 -x {4.0 2.0 13 ------- null}
r -t 0.402876 -s 3 -d 0 -p tcp -e 1040 -c 1 -i 15 -a 1 -x {4.0 2.0 8 ------- null}
h -t 0.402876 -s 0 -d 6 -p tcp -e 1040 -c 1 -i 15 -a 1 -x {4.0 2.0 8 ------- null}
+ -t 0.404556 -s 0 -d 6 -p tcp -e 1040 -c 1 -i 14 -a 1 -x {4.0 2.0 7 ------- null}
- -t 0.404556 -s 0 -d 6 -p tcp -e 1040 -c 1 -i 14 -a 1 -x {4.0 2.0 7 ------- null}
h -t 0.404556 -s 0 -d 6 -p tcp -e 1040 -c 1 -i 14 -a 1 -x {4.0 2.0 -1 ------- null}
r -t 0.406084 -s 7 -d 3 -p tcp -e 1040 -c 1 -i 21 -a 1 -x {4.0 2.0 14 ------- null}
+ -t 0.406084 -s 3 -d 0 -p tcp -e 1040 -c 1 -i 21 -a 1 -x {4.0 2.0 14 ------- null}
- -t 0.409516 -s 3 -d 0 -p tcp -e 1040 -c 1 -i 18 -a 1 -x {4.0 2.0 11 ------- null}
h -t 0.409516 -s 3 -d 0 -p tcp -e 1040 -c 1 -i 18 -a 1 -x {4.0 2.0 -1 ------- null}
r -t 0.411196 -s 3 -d 0 -p tcp -e 1040 -c 1 -i 16 -a 1 -x {4.0 2.0 9 ------- null}
h -t 0.411196 -s 0 -d 6 -p tcp -e 1040 -c 1 -i 16 -a 1 -x {4.0 2.0 9 ------- null}
+ -t 0.412876 -s 0 -d 6 -p tcp -e 1040 -c 1 -i 15 -a 1 -x {4.0 2.0 8 ------- null}
- -t 0.413084 -s 0 -d 6 -p tcp -e 1040 -c 1 -i 15 -a 1 -x {4.0 2.0 8 ------- null}
h -t 0.413084 -s 0 -d 6 -p tcp -e 1040 -c 1 -i 15 -a 1 -x {4.0 2.0 -1 ------- null}
- -t 0.417836 -s 3 -d 0 -p tcp -e 1040 -c 1 -i 19 -a 1 -x {4.0 2.0 12 ------- null}
h -t 0.417836 -s 3 -d 0 -p tcp -e 1040 -c 1 -i 19 -a 1 -x {4.0 2.0 -1 ------- null}
r -t 0.419516 -s 3 -d 0 -p tcp -e 1040 -c 1 -i 17 -a 1 -x {4.0 2.0 10 ------- null}
h -t 0.419516 -s 0 -d 6 -p tcp -e 1040 -c 1 -i 17 -a 1 -x {4.0 2.0 10 ------- null}
+ -t 0.421196 -s 0 -d 6 -p tcp -e 1040 -c 1 -i 16 -a 1 -x {4.0 2.0 9 ------- null}
- -t 0.421612 -s 0 -d 6 -p tcp -e 1040 -c 1 -i 16 -a 1 -x {4.0 2.0 9 ------- null}
h -t 0.421612 -s 0 -d 6 -p tcp -e 1040 -c 1 -i 16 -a 1 -x {4.0 2.0 -1 ------- null}
r -t 0.422992 -s 6 -d 2 -p tcp -e 1040 -c 1 -i 14 -a 1 -x {4.0 2.0 7 ------- null}
h -t 0.422992 -s 2 -d 6 -p ack -e 40 -c 1 -i 22 -a 1 -x {2.0 4.0 7 ------- null}
- -t 0.426156 -s 3 -d 0 -p tcp -e 1040 -c 1 -i 20 -a 1 -x {4.0 2.0 13 ------- null}
h -t 0.426156 -s 3 -d 0 -p tcp -e 1040 -c 1 -i 20 -a 1 -x {4.0 2.0 -1 ------- null}
r -t 0.427836 -s 3 -d 0 -p tcp -e 1040 -c 1 -i 18 -a 1 -x {4.0 2.0 11 ------- null}
h -t 0.427836 -s 0 -d 6 -p tcp -e 1040 -c 1 -i 18 -a 1 -x {4.0 2.0 11 ------- null}
+ -t 0.429516 -s 0 -d 6 -p tcp -e 1040 -c 1 -i 17 -a 1 -x {4.0 2.0 10 ------- null}
- -t 0.43014 -s 0 -d 6 -p tcp -e 1040 -c 1 -i 17 -a 1 -x {4.0 2.0 10 ------- null}
h -t 0.43014 -s 0 -d 6 -p tcp -e 1040 -c 1 -i 17 -a 1 -x {4.0 2.0 -1 ------- null}
r -t 0.43152 -s 6 -d 2 -p tcp -e 1040 -c 1 -i 15 -a 1 -x {4.0 2.0 8 ------- null}
h -t 0.43152 -s 2 -d 6 -p ack -e 40 -c 1 -i 23 -a 1 -x {2.0 4.0 8 ------- null}
+ -t 0.432992 -s 2 -d 6 -p ack -e 40 -c 1 -i 22 -a 1 -x {2.0 4.0 7 ------- null}
- -t 0.432992 -s 2 -d 6 -p ack -e 40 -c 1 -i 22 -a 1 -x {2.0 4.0 7 ------- null}
h -t 0.432992 -s 2 -d 6 -p ack -e 40 -c 1 -i 22 -a 1 -x {2.0 4.0 -1 ------- null}
- -t 0.434476 -s 3 -d 0 -p tcp -e 1040 -c 1 -i 21 -a 1 -x {4.0 2.0 14 ------- null}
h -t 0.434476 -s 3 -d 0 -p tcp -e 1040 -c 1 -i 21 -a 1 -x {4.0 2.0 -1 ------- null}
r -t 0.436156 -s 3 -d 0 -p tcp -e 1040 -c 1 -i 19 -a 1 -x {4.0 2.0 12 ------- null}
h -t 0.436156 -s 0 -d 6 -p tcp -e 1040 -c 1 -i 19 -a 1 -x {4.0 2.0 12 ------- null}
+ -t 0.437836 -s 0 -d 6 -p tcp -e 1040 -c 1 -i 18 -a 1 -x {4.0 2.0 11 ------- null}
- -t 0.438668 -s 0 -d 6 -p tcp -e 1040 -c 1 -i 18 -a 1 -x {4.0 2.0 11 ------- null}
h -t 0.438668 -s 0 -d 6 -p tcp -e 1040 -c 1 -i 18 -a 1 -x {4.0 2.0 -1 ------- null}
r -t 0.440048 -s 6 -d 2 -p tcp -e 1040 -c 1 -i 16 -a 1 -x {4.0 2.0 9 ------- null}
h -t 0.440048 -s 2 -d 6 -p ack -e 40 -c 1 -i 24 -a 1 -x {2.0 4.0 9 ------- null}
+ -t 0.44152 -s 2 -d 6 -p ack -e 40 -c 1 -i 23 -a 1 -x {2.0 4.0 8 ------- null}
r -t 0.444476 -s 3 -d 0 -p tcp -e 1040 -c 1 -i 20 -a 1 -x {4.0 2.0 13 ------- null}
h -t 0.444476 -s 0 -d 6 -p tcp -e 1040 -c 1 -i 20 -a 1 -x {4.0 2.0 13 ------- null}
+ -t 0.446156 -s 0 -d 6 -p tcp -e 1040 -c 1 -i 19 -a 1 -x {4.0 2.0 12 ------- null}
- -t 0.447332 -s 0 -d 6 -p tcp -e 1040 -c 1 -i 19 -a 1 -x {4.0 2.0 12 ------- null}
h -t 0.447332 -s 0 -d 6 -p tcp -e 1040 -c 1 -i 19 -a 1 -x {4.0 2.0 -1 ------- null}
r -t 0.448576 -s 6 -d 2 -p tcp -e 1040 -c 1 -i 17 -a 1 -x {4.0 2.0 10 ------- null}
h -t 0.448576 -s 2 -d 6 -p ack -e 40 -c 1 -i 25 -a 1 -x {2.0 4.0 10 ------- null}
+ -t 0.450048 -s 2 -d 6 -p ack -e 40 -c 1 -i 24 -a 1 -x {2.0 4.0 9 ------- null}
r -t 0.452796 -s 3 -d 0 -p tcp -e 1040 -c 1 -i 21 -a 1 -x {4.0 2.0 14 ------- null}
h -t 0.452796 -s 0 -d 6 -p tcp -e 1040 -c 1 -i 21 -a 1 -x {4.0 2.0 14 ------- null}
+ -t 0.454476 -s 0 -d 6 -p tcp -e 1040 -c 1 -i 20 -a 1 -x {4.0 2.0 13 ------- null}
- -t 0.456508 -s 0 -d 6 -p tcp -e 1040 -c 1 -i 20 -a 1 -x {4.0 2.0 13 ------- null}
h -t 0.456508 -s 0 -d 6 -p tcp -e 1040 -c 1 -i 20 -a 1 -x {4.0 2.0 -1 ------- null}
r -t 0.45724 -s 6 -d 2 -p tcp -e 1040 -c 1 -i 18 -a 1 -x {4.0 2.0 11 ------- null}
h -t 0.45724 -s 2 -d 6 -p ack -e 40 -c 1 -i 26 -a 1 -x {2.0 4.0 11 ------- null}
+ -t 0.458576 -s 2 -d 6 -p ack -e 40 -c 1 -i 25 -a 1 -x {2.0 4.0 10 ------- null}
+ -t 0.462796 -s 0 -d 6 -p tcp -e 1040 -c 1 -i 21 -a 1 -x {4.0 2.0 14 ------- null}
- -t 0.465172 -s 0 -d 6 -p tcp -e 1040 -c 1 -i 21 -a 1 -x {4.0 2.0 14 ------- null}
h -t 0.465172 -s 0 -d 6 -p tcp -e 1040 -c 1 -i 21 -a 1 -x {4.0 2.0 -1 ------- null}
r -t 0.466416 -s 6 -d 2 -p tcp -e 1040 -c 1 -i 19 -a 1 -x {4.0 2.0 12 ------- null}
h -t 0.466416 -s 2 -d 6 -p ack -e 40 -c 1 -i 27 -a 1 -x {2.0 4.0 12 ------- null}
+ -t 0.46724 -s 2 -d 6 -p ack -e 40 -c 1 -i 26 -a 1 -x {2.0 4.0 11 ------- null}
- -t 0.47496 -s 2 -d 6 -p ack -e 40 -c 1 -i 23 -a 1 -x {2.0 4.0 8 ------- null}
h -t 0.47496 -s 2 -d 6 -p ack -e 40 -c 1 -i 23 -a 1 -x {2.0 4.0 -1 ------- null}
r -t 0.47508 -s 6 -d 2 -p tcp -e 1040 -c 1 -i 20 -a 1 -x {4.0 2.0 13 ------- null}
h -t 0.47508 -s 2 -d 6 -p ack -e 40 -c 1 -i 28 -a 1 -x {2.0 4.0 13 ------- null}
- -t 0.475568 -s 2 -d 6 -p ack -e 40 -c 1 -i 24 -a 1 -x {2.0 4.0 9 ------- null}
h -t 0.475568 -s 2 -d 6 -p ack -e 40 -c 1 -i 24 -a 1 -x {2.0 4.0 -1 ------- null}
- -t 0.476176 -s 2 -d 6 -p ack -e 40 -c 1 -i 25 -a 1 -x {2.0 4.0 10 ------- null}
h -t 0.476176 -s 2 -d 6 -p ack -e 40 -c 1 -i 25 -a 1 -x {2.0 4.0 -1 ------- null}
+ -t 0.476416 -s 2 -d 6 -p ack -e 40 -c 1 -i 27 -a 1 -x {2.0 4.0 12 ------- null}
- -t 0.476784 -s 2 -d 6 -p ack -e 40 -c 1 -i 26 -a 1 -x {2.0 4.0 11 ------- null}
h -t 0.476784 -s 2 -d 6 -p ack -e 40 -c 1 -i 26 -a 1 -x {2.0 4.0 -1 ------- null}
- -t 0.477392 -s 2 -d 6 -p ack -e 40 -c 1 -i 27 -a 1 -x {2.0 4.0 12 ------- null}
h -t 0.477392 -s 2 -d 6 -p ack -e 40 -c 1 -i 27 -a 1 -x {2.0 4.0 -1 ------- null}
r -t 0.484256 -s 6 -d 2 -p tcp -e 1040 -c 1 -i 21 -a 1 -x {4.0 2.0 14 ------- null}
h -t 0.484256 -s 2 -d 6 -p ack -e 40 -c 1 -i 29 -a 1 -x {2.0 4.0 14 ------- null}
r -t 0.484868 -s 6 -d 0 -p ack -e 40 -c 1 -i 22 -a 1 -x {2.0 4.0 7 ------- null}
+ -t 0.484868 -s 0 -d 3 -p ack -e 40 -c 1 -i 22 -a 1 -x {2.0 4.0 7 ------- null}
- -t 0.484868 -s 0 -d 3 -p ack -e 40 -c 1 -i 22 -a 1 -x {2.0 4.0 7 ------- null}
h -t 0.484868 -s 0 -d 3 -p ack -e 40 -c 1 -i 22 -a 1 -x {2.0 4.0 -1 ------- null}
+ -t 0.48508 -s 2 -d 6 -p ack -e 40 -c 1 -i 28 -a 1 -x {2.0 4.0 13 ------- null}
- -t 0.48508 -s 2 -d 6 -p ack -e 40 -c 1 -i 28 -a 1 -x {2.0 4.0 13 ------- null}
h -t 0.48508 -s 2 -d 6 -p ack -e 40 -c 1 -i 28 -a 1 -x {2.0 4.0 -1 ------- null}
r -t 0.485476 -s 6 -d 0 -p ack -e 40 -c 1 -i 23 -a 1 -x {2.0 4.0 8 ------- null}
+ -t 0.485476 -s 0 -d 3 -p ack -e 40 -c 1 -i 23 -a 1 -x {2.0 4.0 8 ------- null}
- -t 0.485476 -s 0 -d 3 -p ack -e 40 -c 1 -i 23 -a 1 -x {2.0 4.0 8 ------- null}
h -t 0.485476 -s 0 -d 3 -p ack -e 40 -c 1 -i 23 -a 1 -x {2.0 4.0 -1 ------- null}
r -t 0.486084 -s 6 -d 0 -p ack -e 40 -c 1 -i 24 -a 1 -x {2.0 4.0 9 ------- null}
+ -t 0.486084 -s 0 -d 3 -p ack -e 40 -c 1 -i 24 -a 1 -x {2.0 4.0 9 ------- null}
- -t 0.486084 -s 0 -d 3 -p ack -e 40 -c 1 -i 24 -a 1 -x {2.0 4.0 9 ------- null}
h -t 0.486084 -s 0 -d 3 -p ack -e 40 -c 1 -i 24 -a 1 -x {2.0 4.0 -1 ------- null}
r -t 0.486692 -s 6 -d 0 -p ack -e 40 -c 1 -i 25 -a 1 -x {2.0 4.0 10 ------- null}
+ -t 0.486692 -s 0 -d 3 -p ack -e 40 -c 1 -i 25 -a 1 -x {2.0 4.0 10 ------- null}
- -t 0.486692 -s 0 -d 3 -p ack -e 40 -c 1 -i 25 -a 1 -x {2.0 4.0 10 ------- null}
h -t 0.486692 -s 0 -d 3 -p ack -e 40 -c 1 -i 25 -a 1 -x {2.0 4.0 -1 ------- null}
r -t 0.4873 -s 6 -d 0 -p ack -e 40 -c 1 -i 26 -a 1 -x {2.0 4.0 11 ------- null}
+ -t 0.4873 -s 0 -d 3 -p ack -e 40 -c 1 -i 26 -a 1 -x {2.0 4.0 11 ------- null}
- -t 0.4873 -s 0 -d 3 -p ack -e 40 -c 1 -i 26 -a 1 -x {2.0 4.0 11 ------- null}
h -t 0.4873 -s 0 -d 3 -p ack -e 40 -c 1 -i 26 -a 1 -x {2.0 4.0 -1 ------- null}