h 0 4 7 tcp 40 ------- 1 4.0 2.0 0 0
+ 0.01 4 7 tcp 40 ------- 1 4.0 2.0 0 0
- 0.01 4 7 tcp 40 ------- 1 4.0 2.0 0 0
r 0.02026 7 3 tcp 40 ------- 1 4.0 2.0 0 0
+ 0.02026 3 0 tcp 40 ------- 1 4.0 2.0 0 0
- 0.02026 3 0 tcp 40 ------- 1 4.0 2.0 0 0
r 0.03058 3 0 tcp 40 ------- 1 4.0 2.0 0 0
h 0.03058 0 6 tcp 40 ------- 1 4.0 2.0 0 0
+ 0.04058 0 6 tcp 40 ------- 1 4.0 2.0 0 0
- 0.04058 0 6 tcp 40 ------- 1 4.0 2.0 0 0
r 0.051096 6 2 tcp 40 ------- 1 4.0 2.0 0 0
h 0.051096 2 6 ack 40 ------- 1 2.0 4.0 0 1
+ 0.061096 2 6 ack 40 ------- 1 2.0 4.0 0 1
- 0.061096 2 6 ack 40 ------- 1 2.0 4.0 0 1
r 0.071612 6 0 ack 40 ------- 1 2.0 4.0 0 1
+ 0.071612 0 3 ack 40 ------- 1 2.0 4.0 0 1
- 0.071612 0 3 ack 40 ------- 1 2.0 4.0 0 1
r 0.081932 0 3 ack 40 ------- 1 2.0 4.0 0 1
h 0.081932 3 7 ack 40 ------- 1 2.0 4.0 0 1
+ 0.091932 3 7 ack 40 ------- 1 2.0 4.0 0 1
- 0.091932 3 7 ack 40 ------- 1 2.0 4.0 0 1
r 0.102192 7 4 ack 40 ------- 1 2.0 4.0 0 1
h 0.102192 4 7 tcp 1040 ------- 1 4.0 2.0 1 2
h 0.102192 4 7 tcp 1040 ------- 1 4.0 2.0 2 3
+ 0.112192 4 7 tcp 1040 ------- 1 4.0 2.0 1 2
- 0.112192 4 7 tcp 1040 ------- 1 4.0 2.0 1 2
+ 0.112192 4 7 tcp 1040 ------- 1 4.0 2.0 2 3
- 0.116456 4 7 tcp 1040 ------- 1 4.0 2.0 2 3
r 0.126412 7 3 tcp 1040 ------- 1 4.0 2.0 1 2
+ 0.126412 3 0 tcp 1040 ------- 1 4.0 2.0 1 2
- 0.126412 3 0 tcp 1040 ------- 1 4.0 2.0 1 2
r 0.130676 7 3 tcp 1040 ------- 1 4.0 2.0 2 3
+ 0.130676 3 0 tcp 1040 ------- 1 4.0 2.0 2 3
- 0.134732 3 0 tcp 1040 ------- 1 4.0 2.0 2 3
r 0.144732 3 0 tcp 1040 ------- 1 4.0 2.0 1 2
h 0.144732 0 6 tcp 1040 ------- 1 4.0 2.0 1 2
r 0.153052 3 0 tcp 1040 ------- 1 4.0 2.0 2 3
h 0.153052 0 6 tcp 1040 ------- 1 4.0 2.0 2 3
+ 0.154732 0 6 tcp 1040 ------- 1 4.0 2.0 1 2
- 0.154732 0 6 tcp 1040 ------- 1 4.0 2.0 1 2
+ 0.163052 0 6 tcp 1040 ------- 1 4.0 2.0 2 3
- 0.16326 0 6 tcp 1040 ------- 1 4.0 2.0 2 3
r 0.173168 6 2 tcp 1040 ------- 1 4.0 2.0 1 2
h 0.173168 2 6 ack 40 ------- 1 2.0 4.0 1 4
r 0.181696 6 2 tcp 1040 ------- 1 4.0 2.0 2 3
h 0.181696 2 6 ack 40 ------- 1 2.0 4.0 2 5
+ 0.183168 2 6 ack 40 ------- 1 2.0 4.0 1 4
- 0.183168 2 6 ack 40 ------- 1 2.0 4.0 1 4
+ 0.191696 2 6 ack 40 ------- 1 2.0 4.0 2 5
- 0.191696 2 6 ack 40 ------- 1 2.0 4.0 2 5
r 0.193684 6 0 ack 40 ------- 1 2.0 4.0 1 4
+ 0.193684 0 3 ack 40 ------- 1 2.0 4.0 1 4
- 0.193684 0 3 ack 40 ------- 1 2.0 4.0 1 4
r 0.202212 6 0 ack 40 ------- 1 2.0 4.0 2 5
+ 0.202212 0 3 ack 40 ------- 1 2.0 4.0 2 5
- 0.202212 0 3 ack 40 ------- 1 2.0 4.0 2 5
r 0.204004 0 3 ack 40 ------- 1 2.0 4.0 1 4
h 0.204004 3 7 ack 40 ------- 1 2.0 4.0 1 4
r 0.212532 0 3 ack 40 ------- 1 2.0 4.0 2 5
h 0.212532 3 7 ack 40 ------- 1 2.0 4.0 2 5
+ 0.214004 3 7 ack 40 ------- 1 2.0 4.0 1 4
- 0.214004 3 7 ack 40 ------- 1 2.0 4.0 1 4
+ 0.222532 3 7 ack 40 ------- 1 2.0 4.0 2 5
- 0.222532 3 7 ack 40 ------- 1 2.0 4.0 2 5
r 0.224264 7 4 ack 40 ------- 1 2.0 4.0 1 4
h 0.224264 4 7 tcp 1040 ------- 1 4.0 2.0 3 6
h 0.224264 4 7 tcp 1040 ------- 1 4.0 2.0 4 7
r 0.232792 7 4 ack 40 ------- 1 2.0 4.0 2 5
h 0.232792 4 7 tcp 1040 ------- 1 4.0 2.0 5 8
h 0.232792 4 7 tcp 1040 ------- 1 4.0 2.0 6 9
+ 0.234264 4 7 tcp 1040 ------- 1 4.0 2.0 3 6
- 0.234264 4 7 tcp 1040 ------- 1 4.0 2.0 3 6
+ 0.234264 4 7 tcp 1040 ------- 1 4.0 2.0 4 7
- 0.238528 4 7 tcp 1040 ------- 1 4.0 2.0 4 7
+ 0.242792 4 7 tcp 1040 ------- 1 4.0 2.0 5 8
- 0.242792 4 7 tcp 1040 ------- 1 4.0 2.0 5 8
+ 0.242792 4 7 tcp 1040 ------- 1 4.0 2.0 6 9
- 0.247056 4 7 tcp 1040 ------- 1 4.0 2.0 6 9
r 0.248484 7 3 tcp 1040 ------- 1 4.0 2.0 3 6
+ 0.248484 3 0 tcp 1040 ------- 1 4.0 2.0 3 6
- 0.248484 3 0 tcp 1040 ------- 1 4.0 2.0 3 6
r 0.252748 7 3 tcp 1040 ------- 1 4.0 2.0 4 7
+ 0.252748 3 0 tcp 1040 ------- 1 4.0 2.0 4 7
- 0.256804 3 0 tcp 1040 ------- 1 4.0 2.0 4 7
r 0.257012 7 3 tcp 1040 ------- 1 4.0 2.0 5 8
+ 0.257012 3 0 tcp 1040 ------- 1 4.0 2.0 5 8
r 0.261276 7 3 tcp 1040 ------- 1 4.0 2.0 6 9
+ 0.261276 3 0 tcp 1040 ------- 1 4.0 2.0 6 9
- 0.265124 3 0 tcp 1040 ------- 1 4.0 2.0 5 8
r 0.266804 3 0 tcp 1040 ------- 1 4.0 2.0 3 6
h 0.266804 0 6 tcp 1040 ------- 1 4.0 2.0 3 6
- 0.273444 3 0 tcp 1040 ------- 1 4.0 2.0 6 9
r 0.275124 3 0 tcp 1040 ------- 1 4.0 2.0 4 7
h 0.275124 0 6 tcp 1040 ------- 1 4.0 2.0 4 7
+ 0.276804 0 6 tcp 1040 ------- 1 4.0 2.0 3 6
- 0.276804 0 6 tcp 1040 ------- 1 4.0 2.0 3 6
r 0.283444 3 0 tcp 1040 ------- 1 4.0 2.0 5 8
h 0.283444 0 6 tcp 1040 ------- 1 4.0 2.0 5 8
+ 0.285124 0 6 tcp 1040 ------- 1 4.0 2.0 4 7
- 0.285332 0 6 tcp 1040 ------- 1 4.0 2.0 4 7
r 0.291764 3 0 tcp 1040 ------- 1 4.0 2.0 6 9
h 0.291764 0 6 tcp 1040 ------- 1 4.0 2.0 6 9
+ 0.293444 0 6 tcp 1040 ------- 1 4.0 2.0 5 8
- 0.29386 0 6 tcp 1040 ------- 1 4.0 2.0 5 8
r 0.29524 6 2 tcp 1040 ------- 1 4.0 2.0 3 6
h 0.29524 2 6 ack 40 ------- 1 2.0 4.0 3 10
+ 0.301764 0 6 tcp 1040 ------- 1 4.0 2.0 6 9
- 0.302388 0 6 tcp 1040 ------- 1 4.0 2.0 6 9
r 0.303768 6 2 tcp 1040 ------- 1 4.0 2.0 4 7
h 0.303768 2 6 ack 40 ------- 1 2.0 4.0 4 11
+ 0.30524 2 6 ack 40 ------- 1 2.0 4.0 3 10
- 0.30524 2 6 ack 40 ------- 1 2.0 4.0 3 10
r 0.312296 6 2 tcp 1040 ------- 1 4.0 2.0 5 8
h 0.312296 2 6 ack 40 ------- 1 2.0 4.0 5 12
+ 0.313768 2 6 ack 40 ------- 1 2.0 4.0 4 11
- 0.313768 2 6 ack 40 ------- 1 2.0 4.0 4 11
r 0.320824 6 2 tcp 1040 ------- 1 4.0 2.0 6 9
h 0.320824 2 6 ack 40 ------- 1 2.0 4.0 6 13
r 0.321436 6 0 ack 40 ------- 1 2.0 4.0 3 10
+ 0.321436 0 3 ack 40 ------- 1 2.0 4.0 3 10
- 0.321436 0 3 ack 40 ------- 1 2.0 4.0 3 10
+ 0.322296 2 6 ack 40 ------- 1 2.0 4.0 5 12
- 0.322296 2 6 ack 40 ------- 1 2.0 4.0 5 12
r 0.324284 6 0 ack 40 ------- 1 2.0 4.0 4 11
+ 0.324284 0 3 ack 40 ------- 1 2.0 4.0 4 11
- 0.324284 0 3 ack 40 ------- 1 2.0 4.0 4 11
+ 0.330824 2 6 ack 40 ------- 1 2.0 4.0 6 13
- 0.330824 2 6 ack 40 ------- 1 2.0 4.0 6 13
r 0.331756 0 3 ack 40 ------- 1 2.0 4.0 3 10
h 0.331756 3 7 ack 40 ------- 1 2.0 4.0 3 10
r 0.332812 6 0 ack 40 ------- 1 2.0 4.0 5 12
+ 0.332812 0 3 ack 40 ------- 1 2.0 4.0 5 12
- 0.332812 0 3 ack 40 ------- 1 2.0 4.0 5 12
r 0.334604 0 3 ack 40 ------- 1 2.0 4.0 4 11
h 0.334604 3 7 ack 40 ------- 1 2.0 4.0 4 11
r 0.34134 6 0 ack 40 ------- 1 2.0 4.0 6 13
+ 0.34134 0 3 ack 40 ------- 1 2.0 4.0 6 13
- 0.34134 0 3 ack 40 ------- 1 2.0 4.0 6 13
+ 0.341756 3 7 ack 40 ------- 1 2.0 4.0 3 10
- 0.341756 3 7 ack 40 ------- 1 2.0 4.0 3 10
r 0.343132 0 3 ack 40 ------- 1 2.0 4.0 5 12
h 0.343132 3 7 ack 40 ------- 1 2.0 4.0 5 12
+ 0.344604 3 7 ack 40 ------- 1 2.0 4.0 4 11
- 0.344604 3 7 ack 40 ------- 1 2.0 4.0 4 11
r 0.35166 0 3 ack 40 ------- 1 2.0 4.0 6 13
h 0.35166 3 7 ack 40 ------- 1 2.0 4.0 6 13
r 0.352016 7 4 ack 40 ------- 1 2.0 4.0 3 10
h 0.352016 4 7 tcp 1040 ------- 1 4.0 2.0 7 14
h 0.352016 4 7 tcp 1040 ------- 1 4.0 2.0 8 15
+ 0.353132 3 7 ack 40 ------- 1 2.0 4.0 5 12
- 0.353132 3 7 ack 40 ------- 1 2.0 4.0 5 12
r 0.354864 7 4 ack 40 ------- 1 2.0 4.0 4 11
h 0.354864 4 7 tcp 1040 ------- 1 4.0 2.0 9 16
h 0.354864 4 7 tcp 1040 ------- 1 4.0 2.0 10 17
+ 0.36166 3 7 ack 40 ------- 1 2.0 4.0 6 13
- 0.36166 3 7 ack 40 ------- 1 2.0 4.0 6 13
+ 0.362016 4 7 tcp 1040 ------- 1 4.0 2.0 7 14
- 0.362016 4 7 tcp 1040 ------- 1 4.0 2.0 7 14
+ 0.362016 4 7 tcp 1040 ------- 1 4.0 2.0 8 15
r 0.363392 7 4 ack 40 ------- 1 2.0 4.0 5 12
h 0.363392 4 7 tcp 1040 ------- 1 4.0 2.0 11 18
h 0.363392 4 7 tcp 1040 ------- 1 4.0 2.0 12 19
+ 0.364864 4 7 tcp 1040 ------- 1 4.0 2.0 9 16
+ 0.364864 4 7 tcp 1040 ------- 1 4.0 2.0 10 17
- 0.36628 4 7 tcp 1040 ------- 1 4.0 2.0 8 15
- 0.370544 4 7 tcp 1040 ------- 1 4.0 2.0 9 16
r 0.37192 7 4 ack 40 ------- 1 2.0 4.0 6 13
h 0.37192 4 7 tcp 1040 ------- 1 4.0 2.0 13 20
h 0.37192 4 7 tcp 1040 ------- 1 4.0 2.0 14 21
+ 0.373392 4 7 tcp 1040 ------- 1 4.0 2.0 11 18
+ 0.373392 4 7 tcp 1040 ------- 1 4.0 2.0 12 19
- 0.374808 4 7 tcp 1040 ------- 1 4.0 2.0 10 17
r 0.376236 7 3 tcp 1040 ------- 1 4.0 2.0 7 14
+ 0.376236 3 0 tcp 1040 ------- 1 4.0 2.0 7 14
- 0.376236 3 0 tcp 1040 ------- 1 4.0 2.0 7 14
- 0.379072 4 7 tcp 1040 ------- 1 4.0 2.0 11 18
r 0.3805 7 3 tcp 1040 ------- 1 4.0 2.0 8 15
+ 0.3805 3 0 tcp 1040 ------- 1 4.0 2.0 8 15
+ 0.38192 4 7 tcp 1040 ------- 1 4.0 2.0 13 20
+ 0.38192 4 7 tcp 1040 ------- 1 4.0 2.0 14 21
- 0.383336 4 7 tcp 1040 ------- 1 4.0 2.0 12 19
- 0.384556 3 0 tcp 1040 ------- 1 4.0 2.0 8 15
r 0.384764 7 3 tcp 1040 ------- 1 4.0 2.0 9 16
+ 0.384764 3 0 tcp 1040 ------- 1 4.0 2.0 9 16
- 0.3876 4 7 tcp 1040 ------- 1 4.0 2.0 13 20
r 0.389028 7 3 tcp 1040 ------- 1 4.0 2.0 10 17
+ 0.389028 3 0 tcp 1040 ------- 1 4.0 2.0 10 17
- 0.391864 4 7 tcp 1040 ------- 1 4.0 2.0 14 21
- 0.392876 3 0 tcp 1040 ------- 1 4.0 2.0 9 16
r 0.393292 7 3 tcp 1040 ------- 1 4.0 2.0 11 18
+ 0.393292 3 0 tcp 1040 ------- 1 4.0 2.0 11 18
r 0.394556 3 0 tcp 1040 ------- 1 4.0 2.0 7 14
h 0.394556 0 6 tcp 1040 ------- 1 4.0 2.0 7 14
r 0.397556 7 3 tcp 1040 ------- 1 4.0 2.0 12 19
+ 0.397556 3 0 tcp 1040 ------- 1 4.0 2.0 12 19
- 0.401196 3 0 tcp 1040 ------- 1 4.0 2.0 10 17
r 0.40182 7 3 tcp 1040 ------- 1 4.0 2.0 13 20
+ 0.40182 3 0 tcp 1040 ------- 1 4.0 2.0 13 20
r 0.402876 3 0 tcp 1040 ------- 1 4.0 2.0 8 15
h 0.402876 0 6 tcp 1040 ------- 1 4.0 2.0 8 15
+ 0.404556 0 6 tcp 1040 ------- 1 4.0 2.0 7 14
- 0.404556 0 6 tcp 1040 ------- 1 4.0 2.0 7 14
r 0.406084 7 3 tcp 1040 ------- 1 4.0 2.0 14 21
+ 0.406084 3 0 tcp 1040 ------- 1 4.0 2.0 14 21
- 0.409516 3 0 tcp 1040 ------- 1 4.0 2.0 11 18
r 0.411196 3 0 tcp 1040 ------- 1 4.0 2.0 9 16
h 0.411196 0 6 tcp 1040 ------- 1 4.0 2.0 9 16
+ 0.412876 0 6 tcp 1040 ------- 1 4.0 2.0 8 15
- 0.413084 0 6 tcp 1040 ------- 1 4.0 2.0 8 15
- 0.417836 3 0 tcp 1040 ------- 1 4.0 2.0 12 19
r 0.419516 3 0 tcp 1040 ------- 1 4.0 2.0 10 17
h 0.419516 0 6 tcp 1040 ------- 1 4.0 2.0 10 17
+ 0.421196 0 6 tcp 1040 ------- 1 4.0 2.0 9 16
- 0.421612 0 6 tcp 1040 ------- 1 4.0 2.0 9 16
r 0.422992 6 2 tcp 1040 ------- 1 4.0 2.0 7 14
h 0.422992 2 6 ack 40 ------- 1 2.0 4.0 7 22
- 0.426156 3 0 tcp 1040 ------- 1 4.0 2.0 13 20
r 0.427836 3 0 tcp 1040 ------- 1 4.0 2.0 11 18
h 0.427836 0 6 tcp 1040 ------- 1 4.0 2.0 11 18
+ 0.429516 0 6 tcp 1040 ------- 1 4.0 2.0 10 17
- 0.43014 0 6 tcp 1040 ------- 1 4.0 2.0 10 17
r 0.43152 6 2 tcp 1040 ------- 1 4.0 2.0 8 15
h 0.43152 2 6 ack 40 ------- 1 2.0 4.0 8 23
+ 0.432992 2 6 ack 40 ------- 1 2.0 4.0 7 22
- 0.432992 2 6 ack 40 ------- 1 2.0 4.0 7 22
- 0.434476 3 0 tcp 1040 ------- 1 4.0 2.0 14 21
r 0.436156 3 0 tcp 1040 ------- 1 4.0 2.0 12 19
h 0.436156 0 6 tcp 1040 ------- 1 4.0 2.0 12 19
+ 0.437836 0 6 tcp 1040 ------- 1 4.0 2.0 11 18
- 0.438668 0 6 tcp 1040 ------- 1 4.0 2.0 11 18
r 0.440048 6 2 tcp 1040 ------- 1 4.0 2.0 9 16
h 0.440048 2 6 ack 40 ------- 1 2.0 4.0 9 24
+ 0.44152 2 6 ack 40 ------- 1 2.0 4.0 8 23
r 0.444476 3 0 tcp 1040 ------- 1 4.0 2.0 13 20
h 0.444476 0 6 tcp 1040 ------- 1 4.0 2.0 13 20
+ 0.446156 0 6 tcp 1040 ------- 1 4.0 2.0 12 19
- 0.447332 0 6 tcp 1040 ------- 1 4.0 2.0 12 19
r 0.448576 6 2 tcp 1040 ------- 1 4.0 2.0 10 17
h 0.448576 2 6 ack 40 ------- 1 2.0 4.0 10 25
+ 0.450048 2 6 ack 40 ------- 1 2.0 4.0 9 24
r 0.452796 3 0 tcp 1040 ------- 1 4.0 2.0 14 21
h 0.452796 0 6 tcp 1040 ------- 1 4.0 2.0 14 21
+ 0.454476 0 6 tcp 1040 ------- 1 4.0 2.0 13 20
- 0.456508 0 6 tcp 1040 ------- 1 4.0 2.0 13 20
r 0.45724 6 2 tcp 1040 ------- 1 4.0 2.0 11 18
h 0.45724 2 6 ack 40 ------- 1 2.0 4.0 11 26
+ 0.458576 2 6 ack 40 ------- 1 2.0 4.0 10 25
+ 0.462796 0 6 tcp 1040 ------- 1 4.0 2.0 14 21
- 0.465172 0 6 tcp 1040 ------- 1 4.0 2.0 14 21
r 0.466416 6 2 tcp 1040 ------- 1 4.0 2.0 12 19
h 0.466416 2 6 ack 40 ------- 1 2.0 4.0 12 27
+ 0.46724 2 6 ack 40 ------- 1 2.0 4.0 11 26
- 0.47496 2 6 ack 40 ------- 1 2.0 4.0 8 23
r 0.47508 6 2 tcp 1040 ------- 1 4.0 2.0 13 20
h 0.47508 2 6 ack 40 ------- 1 2.0 4.0 13 28
- 0.475568 2 6 ack 40 ------- 1 2.0 4.0 9 24
- 0.476176 2 6 ack 40 ------- 1 2.0 4.0 10 25
+ 0.476416 2 6 ack 40 ------- 1 2.0 4.0 12 27
- 0.476784 2 6 ack 40 ------- 1 2.0 4.0 11 26
- 0.477392 2 6 ack 40 ------- 1 2.0 4.0 12 27
r 0.484256 6 2 tcp 1040 ------- 1 4.0 2.0 14 21
h 0.484256 2 6 ack 40 ------- 1 2.0 4.0 14 29
r 0.484868 6 0 ack 40 ------- 1 2.0 4.0 7 22
+ 0.484868 0 3 ack 40 ------- 1 2.0 4.0 7 22
- 0.484868 0 3 ack 40 ------- 1 2.0 4.0 7 22
+ 0.48508 2 6 ack 40 ------- 1 2.0 4.0 13 28
- 0.48508 2 6 ack 40 ------- 1 2.0 4.0 13 28
r 0.485476 6 0 ack 40 ------- 1 2.0 4.0 8 23
+ 0.485476 0 3 ack 40 ------- 1 2.0 4.0 8 23
- 0.485476 0 3 ack 40 ------- 1 2.0 4.0 8 23
r 0.486084 6 0 ack 40 ------- 1 2.0 4.0 9 24
+ 0.486084 0 3 ack 40 ------- 1 2.0 4.0 9 24
- 0.486084 0 3 ack 40 ------- 1 2.0 4.0 9 24
r 0.486692 6 0 ack 40 ------- 1 2.0 4.0 10 25
+ 0.486692 0 3 ack 40 ------- 1 2.0 4.0 10 25
- 0.486692 0 3 ack 40 ------- 1 2.0 4.0 10 25
r 0.4873 6 0 ack 40 ------- 1 2.0 4.0 11 26
+ 0.4873 0 3 ack 40 ------- 1 2.0 4.0 11 26
- 0.4873 0 3 ack 40 ------- 1 2.0 4.0 11 26
r 0.487908 6 0 ack 40 ------- 1 2.0 4.0 12 27
+ 0.487908 0 3 ack 40 ------- 1 2.0 4.0 12 27
- 0.487908 0 3 ack 40 ------- 1 2.0 4.0 12 27
+ 0.494256 2 6 ack 40 ------- 1 2.0 4.0 14 29
- 0.494256 2 6 ack 40 ------- 1 2.0 4.0 14 29
r 0.495188 0 3 ack 40 ------- 1 2.0 4.0 7 22
h 0.495188 3 7 ack 40 ------- 1 2.0 4.0 7 22
r 0.495596 6 0 ack 40 ------- 1 2.0 4.0 13 28
+ 0.495596 0 3 ack 40 ------- 1 2.0 4.0 13 28
- 0.495596 0 3 ack 40 ------- 1 2.0 4.0 13 28
r 0.495796 0 3 ack 40 ------- 1 2.0 4.0 8 23
h 0.495796 3 7 ack 40 ------- 1 2.0 4.0 8 23
r 0.496404 0 3 ack 40 ------- 1 2.0 4.0 9 24
h 0.496404 3 7 ack 40 ------- 1 2.0 4.0 9 24
r 0.497012 0 3 ack 40 ------- 1 2.0 4.0 10 25
h 0.497012 3 7 ack 40 ------- 1 2.0 4.0 10 25
r 0.49762 0 3 ack 40 ------- 1 2.0 4.0 11 26
h 0.49762 3 7 ack 40 ------- 1 2.0 4.0 11 26
r 0.498228 0 3 ack 40 ------- 1 2.0 4.0 12 27
h 0.498228 3 7 ack 40 ------- 1 2.0 4.0 12 27
r 0.504772 6 0 ack 40 ------- 1 2.0 4.0 14 29
+ 0.504772 0 3 ack 40 ------- 1 2.0 4.0 14 29
- 0.504772 0 3 ack 40 ------- 1 2.0 4.0 14 29
+ 0.505188 3 7 ack 40 ------- 1 2.0 4.0 7 22
- 0.505188 3 7 ack 40 ------- 1 2.0 4.0 7 22
+ 0.505796 3 7 ack 40 ------- 1 2.0 4.0 8 23
- 0.505796 3 7 ack 40 ------- 1 2.0 4.0 8 23
r 0.505916 0 3 ack 40 ------- 1 2.0 4.0 13 28
h 0.505916 3 7 ack 40 ------- 1 2.0 4.0 13 28
+ 0.506404 3 7 ack 40 ------- 1 2.0 4.0 9 24
- 0.506404 3 7 ack 40 ------- 1 2.0 4.0 9 24
+ 0.507012 3 7 ack 40 ------- 1 2.0 4.0 10 25
- 0.507012 3 7 ack 40 ------- 1 2.0 4.0 10 25
+ 0.50762 3 7 ack 40 ------- 1 2.0 4.0 11 26
- 0.50762 3 7 ack 40 ------- 1 2.0 4.0 11 26
+ 0.508228 3 7 ack 40 ------- 1 2.0 4.0 12 27
- 0.508228 3 7 ack 40 ------- 1 2.0 4.0 12 27
r 0.515092 0 3 ack 40 ------- 1 2.0 4.0 14 29
h 0.515092 3 7 ack 40 ------- 1 2.0 4.0 14 29
r 0.515448 7 4 ack 40 ------- 1 2.0 4.0 7 22
h 0.515448 4 7 tcp 1040 ------- 1 4.0 2.0 15 30
h 0.515448 4 7 tcp 1040 ------- 1 4.0 2.0 16 31
+ 0.515916 3 7 ack 40 ------- 1 2.0 4.0 13 28
- 0.515916 3 7 ack 40 ------- 1 2.0 4.0 13 28
r 0.516056 7 4 ack 40 ------- 1 2.0 4.0 8 23
h 0.516056 4 7 tcp 1040 ------- 1 4.0 2.0 17 32
h 0.516056 4 7 tcp 1040 ------- 1 4.0 2.0 18 33
r 0.516664 7 4 ack 40 ------- 1 2.0 4.0 9 24
h 0.516664 4 7 tcp 1040 ------- 1 4.0 2.0 19 34
h 0.516664 4 7 tcp 1040 ------- 1 4.0 2.0 20 35
r 0.517272 7 4 ack 40 ------- 1 2.0 4.0 10 25
h 0.517272 4 7 tcp 1040 ------- 1 4.0 2.0 21 36
h 0.517272 4 7 tcp 1040 ------- 1 4.0 2.0 22 37
r 0.51788 7 4 ack 40 ------- 1 2.0 4.0 11 26
h 0.51788 4 7 tcp 1040 ------- 1 4.0 2.0 23 38
h 0.51788 4 7 tcp 1040 ------- 1 4.0 2.0 24 39
r 0.518488 7 4 ack 40 ------- 1 2.0 4.0 12 27
h 0.518488 4 7 tcp 1040 ------- 1 4.0 2.0 25 40
h 0.518488 4 7 tcp 1040 ------- 1 4.0 2.0 26 41
+ 0.525092 3 7 ack 40 ------- 1 2.0 4.0 14 29
- 0.525092 3 7 ack 40 ------- 1 2.0 4.0 14 29
+ 0.525448 4 7 tcp 1040 ------- 1 4.0 2.0 15 30
- 0.525448 4 7 tcp 1040 ------- 1 4.0 2.0 15 30
+ 0.525448 4 7 tcp 1040 ------- 1 4.0 2.0 16 31
+ 0.526056 4 7 tcp 1040 ------- 1 4.0 2.0 17 32
+ 0.526056 4 7 tcp 1040 ------- 1 4.0 2.0 18 33
r 0.526176 7 4 ack 40 ------- 1 2.0 4.0 13 28
h 0.526176 4 7 tcp 1040 ------- 1 4.0 2.0 27 42
h 0.526176 4 7 tcp 1040 ------- 1 4.0 2.0 28 43
+ 0.526664 4 7 tcp 1040 ------- 1 4.0 2.0 19 34
+ 0.526664 4 7 tcp 1040 ------- 1 4.0 2.0 20 35
+ 0.527272 4 7 tcp 1040 ------- 1 4.0 2.0 21 36
+ 0.527272 4 7 tcp 1040 ------- 1 4.0 2.0 22 37
+ 0.52788 4 7 tcp 1040 ------- 1 4.0 2.0 23 38
+ 0.52788 4 7 tcp 1040 ------- 1 4.0 2.0 24 39
+ 0.528488 4 7 tcp 1040 ------- 1 4.0 2.0 25 40
+ 0.528488 4 7 tcp 1040 ------- 1 4.0 2.0 26 41
- 0.529712 4 7 tcp 1040 ------- 1 4.0 2.0 16 31
- 0.533976 4 7 tcp 1040 ------- 1 4.0 2.0 17 32
r 0.535352 7 4 ack 40 ------- 1 2.0 4.0 14 29
h 0.535352 4 7 tcp 1040 ------- 1 4.0 2.0 29 44
h 0.535352 4 7 tcp 1040 ------- 1 4.0 2.0 30 45
+ 0.536176 4 7 tcp 1040 ------- 1 4.0 2.0 27 42
+ 0.536176 4 7 tcp 1040 ------- 1 4.0 2.0 28 43
- 0.53824 4 7 tcp 1040 ------- 1 4.0 2.0 18 33
r 0.539668 7 3 tcp 1040 ------- 1 4.0 2.0 15 30
+ 0.539668 3 0 tcp 1040 ------- 1 4.0 2.0 15 30
- 0.539668 3 0 tcp 1040 ------- 1 4.0 2.0 15 30
- 0.542504 4 7 tcp 1040 ------- 1 4.0 2.0 19 34
r 0.543932 7 3 tcp 1040 ------- 1 4.0 2.0 16 31
+ 0.543932 3 0 tcp 1040 ------- 1 4.0 2.0 16 31
+ 0.545352 4 7 tcp 1040 ------- 1 4.0 2.0 29 44
+ 0.545352 4 7 tcp 1040 ------- 1 4.0 2.0 30 45
- 0.546768 4 7 tcp 1040 ------- 1 4.0 2.0 20 35
- 0.547988 3 0 tcp 1040 ------- 1 4.0 2.0 16 31
r 0.548196 7 3 tcp 1040 ------- 1 4.0 2.0 17 32
+ 0.548196 3 0 tcp 1040 ------- 1 4.0 2.0 17 32
- 0.551032 4 7 tcp 1040 ------- 1 4.0 2.0 21 36
r 0.55246 7 3 tcp 1040 ------- 1 4.0 2.0 18 33
+ 0.55246 3 0 tcp 1040 ------- 1 4.0 2.0 18 33
- 0.555296 4 7 tcp 1040 ------- 1 4.0 2.0 22 37
- 0.556308 3 0 tcp 1040 ------- 1 4.0 2.0 17 32
r 0.556724 7 3 tcp 1040 ------- 1 4.0 2.0 19 34
+ 0.556724 3 0 tcp 1040 ------- 1 4.0 2.0 19 34
r 0.557988 3 0 tcp 1040 ------- 1 4.0 2.0 15 30
h 0.557988 0 6 tcp 1040 ------- 1 4.0 2.0 15 30
- 0.55956 4 7 tcp 1040 ------- 1 4.0 2.0 23 38
r 0.560988 7 3 tcp 1040 ------- 1 4.0 2.0 20 35
+ 0.560988 3 0 tcp 1040 ------- 1 4.0 2.0 20 35
- 0.563824 4 7 tcp 1040 ------- 1 4.0 2.0 24 39
- 0.564628 3 0 tcp 1040 ------- 1 4.0 2.0 18 33
r 0.565252 7 3 tcp 1040 ------- 1 4.0 2.0 21 36
+ 0.565252 3 0 tcp 1040 ------- 1 4.0 2.0 21 36
r 0.566308 3 0 tcp 1040 ------- 1 4.0 2.0 16 31
h 0.566308 0 6 tcp 1040 ------- 1 4.0 2.0 16 31
+ 0.567988 0 6 tcp 1040 ------- 1 4.0 2.0 15 30
- 0.567988 0 6 tcp 1040 ------- 1 4.0 2.0 15 30
- 0.568088 4 7 tcp 1040 ------- 1 4.0 2.0 25 40
r 0.569516 7 3 tcp 1040 ------- 1 4.0 2.0 22 37
+ 0.569516 3 0 tcp 1040 ------- 1 4.0 2.0 22 37
- 0.572352 4 7 tcp 1040 ------- 1 4.0 2.0 26 41
- 0.572948 3 0 tcp 1040 ------- 1 4.0 2.0 19 34
r 0.57378 7 3 tcp 1040 ------- 1 4.0 2.0 23 38
+ 0.57378 3 0 tcp 1040 ------- 1 4.0 2.0 23 38
r 0.574628 3 0 tcp 1040 ------- 1 4.0 2.0 17 32
h 0.574628 0 6 tcp 1040 ------- 1 4.0 2.0 17 32
+ 0.576308 0 6 tcp 1040 ------- 1 4.0 2.0 16 31
- 0.576516 0 6 tcp 1040 ------- 1 4.0 2.0 16 31
- 0.576616 4 7 tcp 1040 ------- 1 4.0 2.0 27 42
r 0.578044 7 3 tcp 1040 ------- 1 4.0 2.0 24 39
+ 0.578044 3 0 tcp 1040 ------- 1 4.0 2.0 24 39
- 0.58088 4 7 tcp 1040 ------- 1 4.0 2.0 28 43
- 0.581268 3 0 tcp 1040 ------- 1 4.0 2.0 20 35
r 0.582308 7 3 tcp 1040 ------- 1 4.0 2.0 25 40
+ 0.582308 3 0 tcp 1040 ------- 1 4.0 2.0 25 40
r 0.582948 3 0 tcp 1040 ------- 1 4.0 2.0 18 33
h 0.582948 0 6 tcp 1040 ------- 1 4.0 2.0 18 33
+ 0.584628 0 6 tcp 1040 ------- 1 4.0 2.0 17 32
- 0.585044 0 6 tcp 1040 ------- 1 4.0 2.0 17 32
- 0.585144 4 7 tcp 1040 ------- 1 4.0 2.0 29 44
r 0.586424 6 2 tcp 1040 ------- 1 4.0 2.0 15 30
h 0.586424 2 6 ack 40 ------- 1 2.0 4.0 15 46
r 0.586572 7 3 tcp 1040 ------- 1 4.0 2.0 26 41
+ 0.586572 3 0 tcp 1040 ------- 1 4.0 2.0 26 41
- 0.589408 4 7 tcp 1040 ------- 1 4.0 2.0 30 45
- 0.589588 3 0 tcp 1040 ------- 1 4.0 2.0 21 36
r 0.590836 7 3 tcp 1040 ------- 1 4.0 2.0 27 42
+ 0.590836 3 0 tcp 1040 ------- 1 4.0 2.0 27 42
r 0.591268 3 0 tcp 1040 ------- 1 4.0 2.0 19 34
h 0.591268 0 6 tcp 1040 ------- 1 4.0 2.0 19 34
+ 0.592948 0 6 tcp 1040 ------- 1 4.0 2.0 18 33
- 0.593572 0 6 tcp 1040 ------- 1 4.0 2.0 18 33
r 0.594952 6 2 tcp 1040 ------- 1 4.0 2.0 16 31
h 0.594952 2 6 ack 40 ------- 1 2.0 4.0 16 47
r 0.5951 7 3 tcp 1040 ------- 1 4.0 2.0 28 43
+ 0.5951 3 0 tcp 1040 ------- 1 4.0 2.0 28 43
+ 0.596424 2 6 ack 40 ------- 1 2.0 4.0 15 46
- 0.596424 2 6 ack 40 ------- 1 2.0 4.0 15 46
- 0.597908 3 0 tcp 1040 ------- 1 4.0 2.0 22 37
r 0.599364 7 3 tcp 1040 ------- 1 4.0 2.0 29 44
+ 0.599364 3 0 tcp 1040 ------- 1 4.0 2.0 29 44
r 0.599588 3 0 tcp 1040 ------- 1 4.0 2.0 20 35
h 0.599588 0 6 tcp 1040 ------- 1 4.0 2.0 20 35
+ 0.601268 0 6 tcp 1040 ------- 1 4.0 2.0 19 34
- 0.6021 0 6 tcp 1040 ------- 1 4.0 2.0 19 34
r 0.60348 6 2 tcp 1040 ------- 1 4.0 2.0 17 32
h 0.60348 2 6 ack 40 ------- 1 2.0 4.0 17 48
r 0.603628 7 3 tcp 1040 ------- 1 4.0 2.0 30 45
+ 0.603628 3 0 tcp 1040 ------- 1 4.0 2.0 30 45
+ 0.604952 2 6 ack 40 ------- 1 2.0 4.0 16 47
- 0.604952 2 6 ack 40 ------- 1 2.0 4.0 16 47
- 0.606228 3 0 tcp 1040 ------- 1 4.0 2.0 23 38
r 0.607908 3 0 tcp 1040 ------- 1 4.0 2.0 21 36
h 0.607908 0 6 tcp 1040 ------- 1 4.0 2.0 21 36
+ 0.609588 0 6 tcp 1040 ------- 1 4.0 2.0 20 35
r 0.612008 6 2 tcp 1040 ------- 1 4.0 2.0 18 33
h 0.612008 2 6 ack 40 ------- 1 2.0 4.0 18 49
- 0.612428 0 6 tcp 1040 ------- 1 4.0 2.0 20 35
r 0.612884 6 0 ack 40 ------- 1 2.0 4.0 15 46
+ 0.612884 0 3 ack 40 ------- 1 2.0 4.0 15 46
- 0.612884 0 3 ack 40 ------- 1 2.0 4.0 15 46
+ 0.61348 2 6 ack 40 ------- 1 2.0 4.0 17 48
- 0.614548 3 0 tcp 1040 ------- 1 4.0 2.0 24 39
r 0.616228 3 0 tcp 1040 ------- 1 4.0 2.0 22 37
h 0.616228 0 6 tcp 1040 ------- 1 4.0 2.0 22 37
+ 0.617908 0 6 tcp 1040 ------- 1 4.0 2.0 21 36
- 0.621732 0 6 tcp 1040 ------- 1 4.0 2.0 21 36
+ 0.622008 2 6 ack 40 ------- 1 2.0 4.0 18 49
r 0.622336 6 2 tcp 1040 ------- 1 4.0 2.0 19 34
h 0.622336 2 6 ack 40 ------- 1 2.0 4.0 19 50
- 0.622868 3 0 tcp 1040 ------- 1 4.0 2.0 25 40
r 0.623204 0 3 ack 40 ------- 1 2.0 4.0 15 46
h 0.623204 3 7 ack 40 ------- 1 2.0 4.0 15 46
r 0.624548 3 0 tcp 1040 ------- 1 4.0 2.0 23 38
h 0.624548 0 6 tcp 1040 ------- 1 4.0 2.0 23 38
+ 0.626228 0 6 tcp 1040 ------- 1 4.0 2.0 22 37
- 0.630908 0 6 tcp 1040 ------- 1 4.0 2.0 22 37
- 0.631188 3 0 tcp 1040 ------- 1 4.0 2.0 26 41
r 0.63164 6 2 tcp 1040 ------- 1 4.0 2.0 20 35
h 0.63164 2 6 ack 40 ------- 1 2.0 4.0 20 51
+ 0.632336 2 6 ack 40 ------- 1 2.0 4.0 19 50
r 0.632868 3 0 tcp 1040 ------- 1 4.0 2.0 24 39
h 0.632868 0 6 tcp 1040 ------- 1 4.0 2.0 24 39
+ 0.633204 3 7 ack 40 ------- 1 2.0 4.0 15 46
- 0.633204 3 7 ack 40 ------- 1 2.0 4.0 15 46
+ 0.634548 0 6 tcp 1040 ------- 1 4.0 2.0 23 38
- 0.639508 3 0 tcp 1040 ------- 1 4.0 2.0 27 42
- 0.639572 0 6 tcp 1040 ------- 1 4.0 2.0 23 38
r 0.640816 6 2 tcp 1040 ------- 1 4.0 2.0 21 36
h 0.640816 2 6 ack 40 ------- 1 2.0 4.0 21 52
r 0.641188 3 0 tcp 1040 ------- 1 4.0 2.0 25 40
h 0.641188 0 6 tcp 1040 ------- 1 4.0 2.0 25 40
+ 0.64164 2 6 ack 40 ------- 1 2.0 4.0 20 51
+ 0.642868 0 6 tcp 1040 ------- 1 4.0 2.0 24 39
r 0.643464 7 4 ack 40 ------- 1 2.0 4.0 15 46
h 0.643464 4 7 tcp 1040 ------- 1 4.0 2.0 31 53
h 0.643464 4 7 tcp 1040 ------- 1 4.0 2.0 32 54
- 0.647828 3 0 tcp 1040 ------- 1 4.0 2.0 28 43
- 0.648748 0 6 tcp 1040 ------- 1 4.0 2.0 24 39
r 0.64948 6 2 tcp 1040 ------- 1 4.0 2.0 22 37
h 0.64948 2 6 ack 40 ------- 1 2.0 4.0 22 55
r 0.649508 3 0 tcp 1040 ------- 1 4.0 2.0 26 41
h 0.649508 0 6 tcp 1040 ------- 1 4.0 2.0 26 41
+ 0.650816 2 6 ack 40 ------- 1 2.0 4.0 21 52
+ 0.651188 0 6 tcp 1040 ------- 1 4.0 2.0 25 40
+ 0.653464 4 7 tcp 1040 ------- 1 4.0 2.0 31 53
- 0.653464 4 7 tcp 1040 ------- 1 4.0 2.0 31 53
+ 0.653464 4 7 tcp 1040 ------- 1 4.0 2.0 32 54
- 0.656148 3 0 tcp 1040 ------- 1 4.0 2.0 29 44
- 0.657728 4 7 tcp 1040 ------- 1 4.0 2.0 32 54
r 0.657828 3 0 tcp 1040 ------- 1 4.0 2.0 27 42
h 0.657828 0 6 tcp 1040 ------- 1 4.0 2.0 27 42
- 0.657924 0 6 tcp 1040 ------- 1 4.0 2.0 25 40
r 0.658656 6 2 tcp 1040 ------- 1 4.0 2.0 23 38
h 0.658656 2 6 ack 40 ------- 1 2.0 4.0 23 56
+ 0.65948 2 6 ack 40 ------- 1 2.0 4.0 22 55
+ 0.659508 0 6 tcp 1040 ------- 1 4.0 2.0 26 41
- 0.664468 3 0 tcp 1040 ------- 1 4.0 2.0 30 45
r 0.666148 3 0 tcp 1040 ------- 1 4.0 2.0 28 43
h 0.666148 0 6 tcp 1040 ------- 1 4.0 2.0 28 43
- 0.666452 0 6 tcp 1040 ------- 1 4.0 2.0 26 41
r 0.667684 7 3 tcp 1040 ------- 1 4.0 2.0 31 53
+ 0.667684 3 0 tcp 1040 ------- 1 4.0 2.0 31 53
+ 0.667828 0 6 tcp 1040 ------- 1 4.0 2.0 27 42
r 0.667832 6 2 tcp 1040 ------- 1 4.0 2.0 24 39
h 0.667832 2 6 ack 40 ------- 1 2.0 4.0 24 57
+ 0.668656 2 6 ack 40 ------- 1 2.0 4.0 23 56
r 0.671948 7 3 tcp 1040 ------- 1 4.0 2.0 32 54
+ 0.671948 3 0 tcp 1040 ------- 1 4.0 2.0 32 54
- 0.672788 3 0 tcp 1040 ------- 1 4.0 2.0 31 53
r 0.674468 3 0 tcp 1040 ------- 1 4.0 2.0 29 44
h 0.674468 0 6 tcp 1040 ------- 1 4.0 2.0 29 44
- 0.675116 0 6 tcp 1040 ------- 1 4.0 2.0 27 42
+ 0.676148 0 6 tcp 1040 ------- 1 4.0 2.0 28 43
r 0.67636 6 2 tcp 1040 ------- 1 4.0 2.0 25 40
h 0.67636 2 6 ack 40 ------- 1 2.0 4.0 25 58
+ 0.677832 2 6 ack 40 ------- 1 2.0 4.0 24 57
- 0.681108 3 0 tcp 1040 ------- 1 4.0 2.0 32 54
r 0.682788 3 0 tcp 1040 ------- 1 4.0 2.0 30 45
h 0.682788 0 6 tcp 1040 ------- 1 4.0 2.0 30 45
- 0.683644 0 6 tcp 1040 ------- 1 4.0 2.0 28 43
+ 0.684468 0 6 tcp 1040 ------- 1 4.0 2.0 29 44
r 0.685024 6 2 tcp 1040 ------- 1 4.0 2.0 26 41
h 0.685024 2 6 ack 40 ------- 1 2.0 4.0 26 59
+ 0.68636 2 6 ack 40 ------- 1 2.0 4.0 25 58
r 0.691108 3 0 tcp 1040 ------- 1 4.0 2.0 31 53
h 0.691108 0 6 tcp 1040 ------- 1 4.0 2.0 31 53
- 0.692172 0 6 tcp 1040 ------- 1 4.0 2.0 29 44
+ 0.692788 0 6 tcp 1040 ------- 1 4.0 2.0 30 45
r 0.693552 6 2 tcp 1040 ------- 1 4.0 2.0 27 42
h 0.693552 2 6 ack 40 ------- 1 2.0 4.0 27 60
+ 0.695024 2 6 ack 40 ------- 1 2.0 4.0 26 59
r 0.699428 3 0 tcp 1040 ------- 1 4.0 2.0 32 54
h 0.699428 0 6 tcp 1040 ------- 1 4.0 2.0 32 54
h 0.7 1 6 tcp 40 ------- 2 1.0 5.0 0 61
- 0.7007 0 6 tcp 1040 ------- 1 4.0 2.0 30 45
+ 0.701108 0 6 tcp 1040 ------- 1 4.0 2.0 31 53
r 0.70208 6 2 tcp 1040 ------- 1 4.0 2.0 28 43
h 0.70208 2 6 ack 40 ------- 1 2.0 4.0 28 62
+ 0.703552 2 6 ack 40 ------- 1 2.0 4.0 27 60
- 0.709228 0 6 tcp 1040 ------- 1 4.0 2.0 31 53
+ 0.709428 0 6 tcp 1040 ------- 1 4.0 2.0 32 54
+ 0.71 1 6 tcp 40 ------- 2 1.0 5.0 0 61
- 0.71 1 6 tcp 40 ------- 2 1.0 5.0 0 61
r 0.710608 6 2 tcp 1040 ------- 1 4.0 2.0 29 44
h 0.710608 2 6 ack 40 ------- 1 2.0 4.0 29 63
+ 0.71208 2 6 ack 40 ------- 1 2.0 4.0 28 62
- 0.717756 0 6 tcp 1040 ------- 1 4.0 2.0 32 54
r 0.719136 6 2 tcp 1040 ------- 1 4.0 2.0 30 45
h 0.719136 2 6 ack 40 ------- 1 2.0 4.0 30 64
+ 0.720608 2 6 ack 40 ------- 1 2.0 4.0 29 63
r 0.727664 6 2 tcp 1040 ------- 1 4.0 2.0 31 53
h 0.727664 2 6 ack 40 ------- 1 2.0 4.0 31 65
+ 0.729136 2 6 ack 40 ------- 1 2.0 4.0 30 64
- 0.729208 2 6 ack 40 ------- 1 2.0 4.0 17 48
r 0.729564 6 0 tcp 40 ------- 2 1.0 5.0 0 61
+ 0.729564 0 3 tcp 40 ------- 2 1.0 5.0 0 61
- 0.729564 0 3 tcp 40 ------- 2 1.0 5.0 0 61
- 0.729816 2 6 ack 40 ------- 1 2.0 4.0 18 49
- 0.730424 2 6 ack 40 ------- 1 2.0 4.0 19 50
- 0.731032 2 6 ack 40 ------- 1 2.0 4.0 20 51
- 0.73164 2 6 ack 40 ------- 1 2.0 4.0 21 52
- 0.732248 2 6 ack 40 ------- 1 2.0 4.0 22 55
- 0.732856 2 6 ack 40 ------- 1 2.0 4.0 23 56
- 0.733464 2 6 ack 40 ------- 1 2.0 4.0 24 57
- 0.734072 2 6 ack 40 ------- 1 2.0 4.0 25 58
- 0.73468 2 6 ack 40 ------- 1 2.0 4.0 26 59
- 0.735288 2 6 ack 40 ------- 1 2.0 4.0 27 60
- 0.735896 2 6 ack 40 ------- 1 2.0 4.0 28 62
- 0.736504 2 6 ack 40 ------- 1 2.0 4.0 29 63
- 0.737112 2 6 ack 40 ------- 1 2.0 4.0 30 64
+ 0.737664 2 6 ack 40 ------- 1 2.0 4.0 31 65
- 0.73772 2 6 ack 40 ------- 1 2.0 4.0 31 65
r 0.738504 6 2 tcp 1040 ------- 1 4.0 2.0 32 54
h 0.738504 2 6 ack 40 ------- 1 2.0 4.0 32 66
r 0.739116 6 0 ack 40 ------- 1 2.0 4.0 16 47
+ 0.739116 0 3 ack 40 ------- 1 2.0 4.0 16 47
- 0.739116 0 3 ack 40 ------- 1 2.0 4.0 16 47
r 0.739724 6 0 ack 40 ------- 1 2.0 4.0 17 48
+ 0.739724 0 3 ack 40 ------- 1 2.0 4.0 17 48
- 0.739724 0 3 ack 40 ------- 1 2.0 4.0 17 48
r 0.739884 0 3 tcp 40 ------- 2 1.0 5.0 0 61
h 0.739884 3 7 tcp 40 ------- 2 1.0 5.0 0 61
r 0.740332 6 0 ack 40 ------- 1 2.0 4.0 18 49
+ 0.740332 0 3 ack 40 ------- 1 2.0 4.0 18 49
- 0.740332 0 3 ack 40 ------- 1 2.0 4.0 18 49
r 0.74094 6 0 ack 40 ------- 1 2.0 4.0 19 50
+ 0.74094 0 3 ack 40 ------- 1 2.0 4.0 19 50
- 0.74094 0 3 ack 40 ------- 1 2.0 4.0 19 50
r 0.741548 6 0 ack 40 ------- 1 2.0 4.0 20 51
+ 0.741548 0 3 ack 40 ------- 1 2.0 4.0 20 51
- 0.741548 0 3 ack 40 ------- 1 2.0 4.0 20 51
r 0.742156 6 0 ack 40 ------- 1 2.0 4.0 21 52
+ 0.742156 0 3 ack 40 ------- 1 2.0 4.0 21 52
- 0.742156 0 3 ack 40 ------- 1 2.0 4.0 21 52
r 0.742764 6 0 ack 40 ------- 1 2.0 4.0 22 55
+ 0.742764 0 3 ack 40 ------- 1 2.0 4.0 22 55
- 0.742764 0 3 ack 40 ------- 1 2.0 4.0 22 55
r 0.743372 6 0 ack 40 ------- 1 2.0 4.0 23 56
+ 0.743372 0 3 ack 40 ------- 1 2.0 4.0 23 56
- 0.743372 0 3 ack 40 ------- 1 2.0 4.0 23 56
r 0.74398 6 0 ack 40 ------- 1 2.0 4.0 24 57
+ 0.74398 0 3 ack 40 ------- 1 2.0 4.0 24 57
- 0.74398 0 3 ack 40 ------- 1 2.0 4.0 24 57
r 0.744588 6 0 ack 40 ------- 1 2.0 4.0 25 58
+ 0.744588 0 3 ack 40 ------- 1 2.0 4.0 25 58
- 0.744588 0 3 ack 40 ------- 1 2.0 4.0 25 58
r 0.745196 6 0 ack 40 ------- 1 2.0 4.0 26 59
+ 0.745196 0 3 ack 40 ------- 1 2.0 4.0 26 59
- 0.745196 0 3 ack 40 ------- 1 2.0 4.0 26 59
r 0.745804 6 0 ack 40 ------- 1 2.0 4.0 27 60
+ 0.745804 0 3 ack 40 ------- 1 2.0 4.0 27 60
- 0.745804 0 3 ack 40 ------- 1 2.0 4.0 27 60
r 0.746412 6 0 ack 40 ------- 1 2.0 4.0 28 62
+ 0.746412 0 3 ack 40 ------- 1 2.0 4.0 28 62
- 0.746412 0 3 ack 40 ------- 1 2.0 4.0 28 62
r 0.74702 6 0 ack 40 ------- 1 2.0 4.0 29 63
+ 0.74702 0 3 ack 40 ------- 1 2.0 4.0 29 63
- 0.74702 0 3 ack 40 ------- 1 2.0 4.0 29 63
r 0.747628 6 0 ack 40 ------- 1 2.0 4.0 30 64
+ 0.747628 0 3 ack 40 ------- 1 2.0 4.0 30 64
- 0.747628 0 3 ack 40 ------- 1 2.0 4.0 30 64
r 0.748236 6 0 ack 40 ------- 1 2.0 4.0 31 65
+ 0.748236 0 3 ack 40 ------- 1 2.0 4.0 31 65
- 0.748236 0 3 ack 40 ------- 1 2.0 4.0 31 65
+ 0.748504 2 6 ack 40 ------- 1 2.0 4.0 32 66
- 0.748504 2 6 ack 40 ------- 1 2.0 4.0 32 66
r 0.749436 0 3 ack 40 ------- 1 2.0 4.0 16 47