+ 0 0 2 tcp 40 ------- 0 0.0 4.0 0 0
- 0 0 2 tcp 40 ------- 0 0.0 4.0 0 0
r 0.010107 0 2 tcp 40 ------- 0 0.0 4.0 0 0
+ 0.010107 2 1 tcp 40 ------- 0 0.0 4.0 0 0
- 0.010107 2 1 tcp 40 ------- 0 0.0 4.0 0 0
r 0.54344 2 1 tcp 40 ------- 0 0.0 4.0 0 0
+ 0.54344 1 3 tcp 40 ------- 0 0.0 4.0 0 0
- 0.54344 1 3 tcp 40 ------- 0 0.0 4.0 0 0
r 1.076773 1 3 tcp 40 ------- 0 0.0 4.0 0 0
+ 1.076773 3 4 tcp 40 ------- 0 0.0 4.0 0 0
- 1.076773 3 4 tcp 40 ------- 0 0.0 4.0 0 0
r 1.12688 3 4 tcp 40 ------- 0 0.0 4.0 0 0
+ 1.12688 4 3 ack 40 ------- 0 4.0 0.0 0 1
- 1.12688 4 3 ack 40 ------- 0 4.0 0.0 0 1
r 1.176987 4 3 ack 40 ------- 0 4.0 0.0 0 1
+ 1.176987 3 1 ack 40 ------- 0 4.0 0.0 0 1
- 1.176987 3 1 ack 40 ------- 0 4.0 0.0 0 1
r 1.71032 3 1 ack 40 ------- 0 4.0 0.0 0 1
+ 1.71032 1 2 ack 40 ------- 0 4.0 0.0 0 1
- 1.71032 1 2 ack 40 ------- 0 4.0 0.0 0 1
r 2.243653 1 2 ack 40 ------- 0 4.0 0.0 0 1
+ 2.243653 2 0 ack 40 ------- 0 4.0 0.0 0 1
- 2.243653 2 0 ack 40 ------- 0 4.0 0.0 0 1
r 2.25376 2 0 ack 40 ------- 0 4.0 0.0 0 1
+ 2.25376 0 2 tcp 1040 ------- 0 0.0 4.0 1 2
- 2.25376 0 2 tcp 1040 ------- 0 0.0 4.0 1 2
+ 2.25376 0 2 tcp 1040 ------- 0 0.0 4.0 2 3
- 2.256533 0 2 tcp 1040 ------- 0 0.0 4.0 2 3
r 2.266533 0 2 tcp 1040 ------- 0 0.0 4.0 1 2
+ 2.266533 2 1 tcp 1040 ------- 0 0.0 4.0 1 2
- 2.266533 2 1 tcp 1040 ------- 0 0.0 4.0 1 2
r 2.269307 0 2 tcp 1040 ------- 0 0.0 4.0 2 3
+ 2.269307 2 1 tcp 1040 ------- 0 0.0 4.0 2 3
- 3.1332 2 1 tcp 1040 ------- 0 0.0 4.0 2 3
r 3.6332 2 1 tcp 1040 ------- 0 0.0 4.0 1 2
+ 3.6332 1 3 tcp 1040 ------- 0 0.0 4.0 1 2
- 3.6332 1 3 tcp 1040 ------- 0 0.0 4.0 1 2
r 4.499867 2 1 tcp 1040 ------- 0 0.0 4.0 2 3
+ 4.499867 1 3 tcp 1040 ------- 0 0.0 4.0 2 3
- 4.499867 1 3 tcp 1040 ------- 0 0.0 4.0 2 3
r 4.999867 1 3 tcp 1040 ------- 0 0.0 4.0 1 2
+ 4.999867 3 4 tcp 1040 ------- 0 0.0 4.0 1 2
- 4.999867 3 4 tcp 1040 ------- 0 0.0 4.0 1 2
r 5.05264 3 4 tcp 1040 ------- 0 0.0 4.0 1 2
+ 5.05264 4 3 ack 40 ------- 0 4.0 0.0 1 4
- 5.05264 4 3 ack 40 ------- 0 4.0 0.0 1 4
r 5.102747 4 3 ack 40 ------- 0 4.0 0.0 1 4
+ 5.102747 3 1 ack 40 ------- 0 4.0 0.0 1 4
- 5.102747 3 1 ack 40 ------- 0 4.0 0.0 1 4
r 5.63608 3 1 ack 40 ------- 0 4.0 0.0 1 4
+ 5.63608 1 2 ack 40 ------- 0 4.0 0.0 1 4
- 5.63608 1 2 ack 40 ------- 0 4.0 0.0 1 4
r 5.866533 1 3 tcp 1040 ------- 0 0.0 4.0 2 3
+ 5.866533 3 4 tcp 1040 ------- 0 0.0 4.0 2 3
- 5.866533 3 4 tcp 1040 ------- 0 0.0 4.0 2 3
r 5.919307 3 4 tcp 1040 ------- 0 0.0 4.0 2 3
+ 5.919307 4 3 ack 40 ------- 0 4.0 0.0 2 5
- 5.919307 4 3 ack 40 ------- 0 4.0 0.0 2 5
r 5.969413 4 3 ack 40 ------- 0 4.0 0.0 2 5
+ 5.969413 3 1 ack 40 ------- 0 4.0 0.0 2 5
- 5.969413 3 1 ack 40 ------- 0 4.0 0.0 2 5
r 6.169413 1 2 ack 40 ------- 0 4.0 0.0 1 4
+ 6.169413 2 0 ack 40 ------- 0 4.0 0.0 1 4
- 6.169413 2 0 ack 40 ------- 0 4.0 0.0 1 4
r 6.17952 2 0 ack 40 ------- 0 4.0 0.0 1 4
+ 6.17952 0 2 tcp 1040 ------- 0 0.0 4.0 3 6
- 6.17952 0 2 tcp 1040 ------- 0 0.0 4.0 3 6
+ 6.17952 0 2 tcp 1040 ------- 0 0.0 4.0 4 7
- 6.182293 0 2 tcp 1040 ------- 0 0.0 4.0 4 7
r 6.192293 0 2 tcp 1040 ------- 0 0.0 4.0 3 6
+ 6.192293 2 1 tcp 1040 ------- 0 0.0 4.0 3 6
- 6.192293 2 1 tcp 1040 ------- 0 0.0 4.0 3 6
r 6.195067 0 2 tcp 1040 ------- 0 0.0 4.0 4 7
+ 6.195067 2 1 tcp 1040 ------- 0 0.0 4.0 4 7
r 6.502747 3 1 ack 40 ------- 0 4.0 0.0 2 5
+ 6.502747 1 2 ack 40 ------- 0 4.0 0.0 2 5
- 6.502747 1 2 ack 40 ------- 0 4.0 0.0 2 5
r 7.03608 1 2 ack 40 ------- 0 4.0 0.0 2 5
+ 7.03608 2 0 ack 40 ------- 0 4.0 0.0 2 5
- 7.03608 2 0 ack 40 ------- 0 4.0 0.0 2 5
r 7.046187 2 0 ack 40 ------- 0 4.0 0.0 2 5
+ 7.046187 0 2 tcp 1040 ------- 0 0.0 4.0 5 8
- 7.046187 0 2 tcp 1040 ------- 0 0.0 4.0 5 8
+ 7.046187 0 2 tcp 1040 ------- 0 0.0 4.0 6 9
- 7.04896 0 2 tcp 1040 ------- 0 0.0 4.0 6 9
- 7.05896 2 1 tcp 1040 ------- 0 0.0 4.0 4 7
r 7.05896 0 2 tcp 1040 ------- 0 0.0 4.0 5 8
+ 7.05896 2 1 tcp 1040 ------- 0 0.0 4.0 5 8
r 7.061733 0 2 tcp 1040 ------- 0 0.0 4.0 6 9
+ 7.061733 2 1 tcp 1040 ------- 0 0.0 4.0 6 9
r 7.55896 2 1 tcp 1040 ------- 0 0.0 4.0 3 6
+ 7.55896 1 3 tcp 1040 ------- 0 0.0 4.0 3 6
- 7.55896 1 3 tcp 1040 ------- 0 0.0 4.0 3 6
- 7.925627 2 1 tcp 1040 ------- 0 0.0 4.0 5 8
r 8.425627 2 1 tcp 1040 ------- 0 0.0 4.0 4 7
+ 8.425627 1 3 tcp 1040 ------- 0 0.0 4.0 4 7
- 8.425627 1 3 tcp 1040 ------- 0 0.0 4.0 4 7
- 8.792293 2 1 tcp 1040 ------- 0 0.0 4.0 6 9
r 8.925627 1 3 tcp 1040 ------- 0 0.0 4.0 3 6
+ 8.925627 3 4 tcp 1040 ------- 0 0.0 4.0 3 6
- 8.925627 3 4 tcp 1040 ------- 0 0.0 4.0 3 6
r 8.9784 3 4 tcp 1040 ------- 0 0.0 4.0 3 6
+ 8.9784 4 3 ack 40 ------- 0 4.0 0.0 3 10
- 8.9784 4 3 ack 40 ------- 0 4.0 0.0 3 10
r 9.028507 4 3 ack 40 ------- 0 4.0 0.0 3 10
+ 9.028507 3 1 ack 40 ------- 0 4.0 0.0 3 10
- 9.028507 3 1 ack 40 ------- 0 4.0 0.0 3 10
r 9.292293 2 1 tcp 1040 ------- 0 0.0 4.0 5 8
+ 9.292293 1 3 tcp 1040 ------- 0 0.0 4.0 5 8
- 9.292293 1 3 tcp 1040 ------- 0 0.0 4.0 5 8
r 9.56184 3 1 ack 40 ------- 0 4.0 0.0 3 10
+ 9.56184 1 2 ack 40 ------- 0 4.0 0.0 3 10
- 9.56184 1 2 ack 40 ------- 0 4.0 0.0 3 10
r 9.792293 1 3 tcp 1040 ------- 0 0.0 4.0 4 7
+ 9.792293 3 4 tcp 1040 ------- 0 0.0 4.0 4 7
- 9.792293 3 4 tcp 1040 ------- 0 0.0 4.0 4 7
r 9.845067 3 4 tcp 1040 ------- 0 0.0 4.0 4 7
+ 9.845067 4 3 ack 40 ------- 0 4.0 0.0 4 11
- 9.845067 4 3 ack 40 ------- 0 4.0 0.0 4 11
r 9.895173 4 3 ack 40 ------- 0 4.0 0.0 4 11
+ 9.895173 3 1 ack 40 ------- 0 4.0 0.0 4 11
- 9.895173 3 1 ack 40 ------- 0 4.0 0.0 4 11
